LAMMPS data file via write_data, version 15 May 2015, timestep = 848

880 atoms
5 atom types

0.0000000000000000e+00 1.1431634000000001e+01 xlo xhi
-1.2605809378829042e+02 1.2605809378829042e+02 ylo yhi
0.0000000000000000e+00 3.6150000000000002e+00 zlo zhi

Atoms # atomic

1 1 1.7199634298984507e+00 -1.2504768287765845e+02 2.2696457889008332e+00 0 0 0
3 1 2.2840852944421295e+00 -1.2332034345767205e+02 4.6214524786103939e-01 0 0 0
7 1 4.1564561775280923e-03 -1.2447799251730935e+02 4.6214494474146028e-01 0 0 0
9 1 5.7355044983821557e-01 -1.2275887315315671e+02 2.2696458114807068e+00 0 0 0
50 1 3.4112819335822833e+00 -1.2558797152191761e+02 4.6214542247169288e-01 0 0 0
22 1 7.4357804431926846e+00 -1.2504768304487621e+02 2.2696461450270888e+00 0 0 0
23 1 6.2893675124744863e+00 -1.2275887287713017e+02 2.2696457950754545e+00 0 0 0
25 1 5.7199733083700908e+00 -1.2447799264512186e+02 4.6214511065594793e-01 0 0 0
51 1 4.0063201808832289e+00 -1.2390030944191466e+02 2.2696457263548075e+00 0 0 0
6 1 9.7221372007494278e+00 -1.2390030919144840e+02 2.2696461266225545e+00 0 0 0
8 1 9.1270988150025971e+00 -1.2558797165872163e+02 4.6214472016223002e-01 0 0 0
24 1 7.9999024310940845e+00 -1.2332034321183751e+02 4.6214499889527155e-01 0 0 0
11 1 1.1437015317696517e+00 -1.2103978306329367e+02 4.6214531338808018e-01 0 0 0
13 1 1.7164773852898059e+00 -1.1932661910987206e+02 2.2696453668756464e+00 0 0 0
52 1 2.8602048598593304e+00 -1.2161257678626671e+02 2.2696455682514811e+00 0 0 0
57 1 3.4316564791474371e+00 -1.1989939313461521e+02 4.6214543722293411e-01 0 0 0
27 1 7.4322944318789510e+00 -1.1932661881115337e+02 2.2696454084235880e+00 0 0 0
29 1 6.8595183831628539e+00 -1.2103978335761873e+02 4.6214528709437702e-01 0 0 0
53 1 4.5755938890574219e+00 -1.2218744768114213e+02 4.6214529438171775e-01 0 0 0
54 1 5.1461113122749502e+00 -1.2047105067783178e+02 2.2696454707458424e+00 0 0 0
56 1 5.7171719976379860e+00 -1.1875499646252510e+02 4.6214546084321995e-01 0 0 0
10 1 1.0861928383773590e+01 -1.2047105036028069e+02 2.2696455546925027e+00 0 0 0
12 1 1.0291410732480447e+01 -1.2218744793944018e+02 4.6214509912899510e-01 0 0 0
16 1 1.3548516001691269e-03 -1.1875499670292076e+02 4.6214542898213079e-01 1 0 0
26 1 8.5760218021111889e+00 -1.2161257710833428e+02 2.2696457409618813e+00 0 0 0
28 1 9.1474736415805982e+00 -1.1989939285657847e+02 4.6214533632269661e-01 0 0 0
14 1 5.7319795890697078e-01 -1.1704064991512091e+02 2.2696452576220638e+00 0 0 0
15 1 2.2881371087486606e+00 -1.1761259601105181e+02 4.6214547893390073e-01 0 0 0
18 1 1.1448060010191123e+00 -1.1532622100992798e+02 4.6214539606115063e-01 0 0 0
84 1 2.8595554909507350e+00 -1.1589784813685235e+02 2.2696452371943900e+00 0 0 0
55 1 4.0028202513625137e+00 -1.1818427994460568e+02 2.2696452712239945e+00 0 0 0
58 1 6.2890149533170607e+00 -1.1704065010890334e+02 2.2696452507894445e+00 0 0 0
60 1 6.8606230611798633e+00 -1.1532622095814729e+02 4.6214539338924321e-01 0 0 0
61 1 4.5741898678681876e+00 -1.1646916007317925e+02 4.6214545815020858e-01 0 0 0
30 1 9.7186372170523079e+00 -1.1818428019467972e+02 2.2696453280088944e+00 0 0 0
31 1 8.5753724823020470e+00 -1.1589784802878701e+02 2.2696452595207721e+00 0 0 0
32 1 1.0290006968527205e+01 -1.1646915994551067e+02 4.6214543153932180e-01 0 0 0
33 1 8.0039539711085030e+00 -1.1761259620635985e+02 4.6214544885828218e-01 0 0 0
17 1 1.7163047565032836e+00 -1.1361155381841429e+02 2.2696452964896427e+00 0 0 0
19 1 2.2878136528114319e+00 -1.1189684733598462e+02 4.6214523160450222e-01 0 0 0
38 1 5.7306293880887926e-01 -1.1132531280596378e+02 2.2696453093420104e+00 0 0 0
85 1 3.4310290465365365e+00 -1.1418303922920890e+02 4.6214533800299151e-01 0 0 0
59 1 5.1457967697200120e+00 -1.1475455033942217e+02 2.2696452599137777e+00 0 0 0
62 1 7.4321217661241512e+00 -1.1361155373799014e+02 2.2696452961956393e+00 0 0 0
63 1 6.2888799903625685e+00 -1.1132531307049909e+02 2.2696453023875729e+00 0 0 0
65 1 5.7173589331441779e+00 -1.1303996827593829e+02 4.6214526950484514e-01 0 0 0
86 1 4.0025749403846476e+00 -1.1246838119276114e+02 2.2696453096193641e+00 0 0 0
34 1 1.0861613782979800e+01 -1.1475455035124602e+02 2.2696452760281720e+00 0 0 0
35 1 9.7183919603513065e+00 -1.1246838136149985e+02 2.2696453177721305e+00 0 0 0
36 1 1.5418468685197695e-03 -1.1303996835942361e+02 4.6214526985074239e-01 1 0 0
37 1 9.1468460580038382e+00 -1.1418303920372635e+02 4.6214532318826701e-01 0 0 0
64 1 8.0036304823817161e+00 -1.1189684748214728e+02 4.6214522356838028e-01 0 0 0
40 1 1.1445840266574017e+00 -1.0961063939906299e+02 4.6214523486791270e-01 0 0 0
42 1 1.7161120544749038e+00 -1.0789597436893449e+02 2.2696451147951571e+00 0 0 0
87 1 2.8593464881657731e+00 -1.1018218335921266e+02 2.2696452670001546e+00 0 0 0
92 1 3.4308762972215572e+00 -1.0846753287914736e+02 4.6214528112271436e-01 0 0 0
67 1 7.4319292222072768e+00 -1.0789597474340459e+02 2.2696451136154616e+00 0 0 0
69 1 6.8604013457824102e+00 -1.0961063918742794e+02 4.6214523125487572e-01 0 0 0
88 1 4.5741147002206146e+00 -1.1075374817348887e+02 4.6214521451342672e-01 0 0 0
89 1 5.1456412922357737e+00 -1.0903909136368426e+02 2.2696451976797083e+00 0 0 0
91 1 5.7171673836092154e+00 -1.0732442780968647e+02 4.6214534287408510e-01 0 0 0
39 1 1.0861458426912689e+01 -1.0903909172769059e+02 2.2696452015496047e+00 0 0 0
41 1 1.0289931951523082e+01 -1.1075374798014289e+02 4.6214521309491940e-01 0 0 0
45 1 1.3507715536107412e-03 -1.0732442760683841e+02 4.6214534095640381e-01 1 0 0
66 1 8.5751633842037567e+00 -1.1018218303354108e+02 2.2696452675118088e+00 0 0 0
68 1 9.1466929186969441e+00 -1.0846753309466922e+02 4.6214527777454240e-01 0 0 0
43 1 5.7288376575476463e-01 -1.0560976356582509e+02 2.2696449557633662e+00 0 0 0
44 1 2.2876449437964408e+00 -1.0618131820513578e+02 4.6214540584419966e-01 0 0 0
47 1 1.1444232581099558e+00 -1.0389510206124994e+02 4.6214546789309785e-01 0 0 0
105 1 2.8591824799492862e+00 -1.0446665892059271e+02 2.2696449171585722e+00 0 0 0
90 1 4.0024069261635864e+00 -1.0675287651818363e+02 2.2696450275112761e+00 0 0 0
93 1 6.2887005835789704e+00 -1.0560976322837402e+02 2.2696449576743953e+00 0 0 0
95 1 6.8602399792765576e+00 -1.0389510217024032e+02 4.6214547167014597e-01 0 0 0
96 1 4.5739415344178678e+00 -1.0503821238138808e+02 4.6214545373148058e-01 0 0 0
70 1 9.7182237391857349e+00 -1.0675287614959258e+02 2.2696450266471517e+00 0 0 0
71 1 8.5749996473799079e+00 -1.0446665919679512e+02 2.2696449165918224e+00 0 0 0
72 1 1.0289758199909217e+01 -1.0503821253129840e+02 4.6214545073132357e-01 0 0 0
73 1 8.0034623220916696e+00 -1.0618131801549089e+02 4.6214540394885029e-01 0 0 0
46 1 1.7159685620595173e+00 -1.0218043810254711e+02 2.2696449558574097e+00 0 0 0
48 1 2.2875126860652779e+00 -1.0046577585875305e+02 4.6214531513630036e-01 0 0 0
78 1 5.7275436582711270e-01 -9.9894221847724666e+01 2.2696451327628728e+00 0 0 0
106 1 3.4307263560790444e+00 -1.0275199272488713e+02 4.6214545265473672e-01 0 0 0
94 1 5.1454818339052437e+00 -1.0332354691125443e+02 2.2696449187475252e+00 0 0 0
97 1 7.4317854442749285e+00 -1.0218043792489601e+02 2.2696449596311958e+00 0 0 0
98 1 6.2885714530938044e+00 -9.9894221949011865e+01 2.2696451373778537e+00 0 0 0
100 1 5.7170271655756348e+00 -1.0160888268884185e+02 4.6214540109384505e-01 0 0 0
107 1 4.0022694784011508e+00 -1.0103732795360212e+02 2.2696450358449161e+00 0 0 0
74 1 1.0861298692883976e+01 -1.0332354668797531e+02 2.2696449144685560e+00 0 0 0
75 1 9.7180865631638138e+00 -1.0103732808331401e+02 2.2696450324753883e+00 0 0 0
76 1 1.2100076444276908e-03 -1.0160888274470710e+02 4.6214539478116640e-01 1 0 0
77 1 9.1465435621479418e+00 -1.0275199264389366e+02 4.6214545074197816e-01 0 0 0
99 1 8.0033295657842825e+00 -1.0046577588017331e+02 4.6214531634806844e-01 0 0 0
80 1 1.1442906185879498e+00 -9.8179562342636117e+01 4.6214512340658043e-01 0 0 0
82 1 1.7158133336488925e+00 -9.6464899904820228e+01 2.2696454418132297e+00 0 0 0
83 1 3.4305807121108209e+00 -9.7036453733003242e+01 4.6214504727205985e-01 0 0 0
108 1 2.8590507593381900e+00 -9.8751112252261748e+01 2.2696452466718817e+00 0 0 0
102 1 7.4316304250059702e+00 -9.6464900127119023e+01 2.2696454429366604e+00 0 0 0
104 1 6.8601077499895933e+00 -9.8179562270458391e+01 4.6214512611120329e-01 0 0 0
109 1 4.5738118867174098e+00 -9.9322666114655831e+01 4.6214522124660978e-01 0 0 0
110 1 5.1453436751041517e+00 -9.7608006823551904e+01 2.2696453531949610e+00 0 0 0
79 1 1.0861160775680702e+01 -9.7608006992199861e+01 2.2696453521617737e+00 0 0 0
81 1 1.0289628996445392e+01 -9.9322666081817147e+01 4.6214521747796056e-01 0 0 0
101 1 8.5748676784627857e+00 -9.8751112114189638e+01 2.2696452466087353e+00 0 0 0
103 1 9.1463975427575903e+00 -9.7036453832929951e+01 4.6214504900516840e-01 0 0 0
113 1 5.7256021132431012e-01 -9.4178688967166863e+01 2.2696455297714775e+00 0 0 0
114 1 2.2873279997787637e+00 -9.4750242331923133e+01 4.6214499329956327e-01 0 0 0
116 1 1.1440766394715998e+00 -9.2464029203374778e+01 4.6214509800821263e-01 0 0 0
169 1 2.8588431727466852e+00 -9.3035582918961566e+01 2.2696455181266422e+00 0 0 0
112 1 5.7168640689775998e+00 -9.5893347458586945e+01 4.6214500221128485e-01 0 0 0
137 1 4.0020965589679234e+00 -9.5321794335880782e+01 2.2696455000393896e+00 0 0 0
138 1 6.2883771673095623e+00 -9.4178688554540997e+01 2.2696455279663663e+00 0 0 0
140 1 6.8598933776851876e+00 -9.2464029709914868e+01 4.6214509495023370e-01 0 0 0
141 1 4.5736100823534054e+00 -9.3607134887031208e+01 4.6214502313066613e-01 0 0 0
111 1 1.0473057329676294e-03 -9.5893347286953528e+01 4.6214500335088449e-01 1 0 0
118 1 9.7179134800063949e+00 -9.5321794025632300e+01 2.2696455049260442e+00 0 0 0
119 1 8.5746601379525771e+00 -9.3035583419150484e+01 2.2696455224123051e+00 0 0 0
120 1 1.0289426797262221e+01 -9.3607135282400876e+01 4.6214503172507976e-01 0 0 0
121 1 8.0031452637501506e+00 -9.4750242058568801e+01 4.6214499585690144e-01 0 0 0
115 1 1.7156002768020844e+00 -9.0749371435125454e+01 2.2696454144883060e+00 0 0 0
117 1 2.2871208510179089e+00 -8.9034709496350743e+01 4.6214545590118605e-01 0 0 0
126 1 5.7235728639250927e-01 -8.8463157806535605e+01 2.2696452497095478e+00 0 0 0
170 1 3.4303638165203143e+00 -9.1320923604287785e+01 4.6214519331322729e-01 0 0 0
139 1 5.1451289100493760e+00 -9.1892476391656785e+01 2.2696454739248084e+00 0 0 0
142 1 7.4314175781201062e+00 -9.0749370815952403e+01 2.2696454106644857e+00 0 0 0
143 1 6.2881737065245407e+00 -8.8463158453055158e+01 2.2696452407003349e+00 0 0 0
145 1 5.7166525686458138e+00 -9.0177816302448591e+01 4.6214531419261523e-01 0 0 0
171 1 4.0018875880379907e+00 -8.9606263577816762e+01 2.2696453270950774e+00 0 0 0
122 1 1.0860946066020681e+01 -9.1892475825206930e+01 2.2696454839677114e+00 0 0 0
123 1 9.7177041532215060e+00 -8.9606264227667026e+01 2.2696453345930925e+00 0 0 0
124 1 8.3546222226438260e-04 -9.0177817028343327e+01 4.6214532504005734e-01 1 0 0
125 1 9.1461810313491743e+00 -9.1320922980481470e+01 4.6214519991048086e-01 0 0 0
144 1 8.0029378490513636e+00 -8.9034710306622770e+01 4.6214545208699298e-01 0 0 0
128 1 1.1438756868871531e+00 -8.6748498429651889e+01 4.6214572302391688e-01 0 0 0
130 1 1.7153978412425854e+00 -8.5033838011077577e+01 2.2696450777773856e+00 0 0 0
172 1 2.8586410987866722e+00 -8.7320052640232490e+01 2.2696451698774101e+00 0 0 0
177 1 3.4301621519173287e+00 -8.5605392674115180e+01 4.6214583502555195e-01 0 0 0
147 1 7.4312142783595752e+00 -8.5033838474943849e+01 2.2696450713406011e+00 0 0 0
149 1 6.8596925099751367e+00 -8.6748497650465268e+01 4.6214571495668672e-01 0 0 0
173 1 4.5734074652558609e+00 -8.7891605812411015e+01 4.6214558791091964e-01 0 0 0
174 1 5.1449272591920527e+00 -8.6176945232182604e+01 2.2696451071660566e+00 0 0 0
127 1 1.0860743592443173e+01 -8.6176945767838006e+01 2.2696451078345921e+00 0 0 0
129 1 1.0289224362498532e+01 -8.7891604993046982e+01 4.6214559249994031e-01 0 0 0
146 1 8.5744587479584382e+00 -8.7320052057593870e+01 2.2696451649213798e+00 0 0 0
148 1 9.1459793464874899e+00 -8.5605393385774079e+01 4.6214582938444076e-01 0 0 0
131 1 5.7215921161664129e-01 -8.2747625480687049e+01 2.2696451057876672e+00 0 0 0
132 1 2.2869217419302532e+00 -8.3319178461158415e+01 4.6214598499394371e-01 0 0 0
135 1 1.1436850615536620e+00 -8.1032965235660726e+01 4.6214600486944396e-01 0 0 0
200 1 2.8584498122162754e+00 -8.1604521069426639e+01 2.2696451758875287e+00 0 0 0
175 1 4.0016859960002371e+00 -8.3890733344083770e+01 2.2696450774112384e+00 0 0 0
176 1 5.7164498558359602e+00 -8.4462284969311824e+01 4.6214592253287035e-01 0 0 0
178 1 6.2879763514615323e+00 -8.2747625222257483e+01 2.2696451103887938e+00 0 0 0
180 1 6.8595017139567735e+00 -8.1032965165560682e+01 4.6214601082274337e-01 0 0 0
181 1 4.5732128619250156e+00 -8.2176073522480834e+01 4.6214601603190536e-01 0 0 0
133 1 6.3269400128973530e-04 -8.4462284405451257e+01 4.6214591971882923e-01 1 0 0
150 1 9.7175033900659891e+00 -8.3890732977256221e+01 2.2696450693068857e+00 0 0 0
151 1 8.5742669906242597e+00 -8.1604521247814219e+01 2.2696451714297754e+00 0 0 0
152 1 1.0289029722985633e+01 -8.2176073652739262e+01 4.6214600569164532e-01 0 0 0
153 1 8.0027387229721860e+00 -8.3319178097035319e+01 4.6214597857629758e-01 0 0 0
134 1 1.7152111521743001e+00 -7.9318307955872243e+01 2.2696453771807668e+00 0 0 0
136 1 2.2867382165167078e+00 -7.7603651252711643e+01 4.6214587603488372e-01 0 0 0
201 1 3.4299752344256995e+00 -7.9889861642343917e+01 4.6214598193819456e-01 0 0 0
179 1 5.1447383749811522e+00 -8.0461412369291395e+01 2.2696452720953286e+00 0 0 0
182 1 7.4310273670302820e+00 -7.9318307924899401e+01 2.2696453830122691e+00 0 0 0
185 1 5.7162637546416732e+00 -7.8746753990636435e+01 4.6214593863288578e-01 0 0 0
202 1 4.0014991736919789e+00 -7.8175201355062370e+01 2.2696455050521340e+00 0 0 0
154 1 1.0860554876491381e+01 -8.0461412252570042e+01 2.2696452617491492e+00 0 0 0
155 1 9.7173171520939778e+00 -7.8175201331284129e+01 2.2696455019825503e+00 0 0 0
156 1 4.4603561140554859e-04 -7.8746753523752417e+01 4.6214592885434230e-01 1 0 0
157 1 9.1457927756638426e+00 -7.9889861926805281e+01 4.6214597821793357e-01 0 0 0
184 1 8.0025544122149466e+00 -7.7603650684251988e+01 4.6214588273944524e-01 0 0 0
158 1 5.7197442965629020e-01 -7.7032098351076172e+01 2.2696456256167798e+00 0 0 0
160 1 1.1435027240637978e+00 -7.5317439654455612e+01 4.6214578227976100e-01 0 0 0
162 1 1.7150270808297197e+00 -7.3602779357497582e+01 2.2696459453949083e+00 0 0 0
203 1 2.8582653476348323e+00 -7.5888990687175109e+01 2.2696457450348566e+00 0 0 0
208 1 3.4297937105341223e+00 -7.4174335124453961e+01 4.6214575401734459e-01 0 0 0
183 1 6.2877925138508468e+00 -7.7032098307650372e+01 2.2696456326984662e+00 0 0 0
187 1 7.4308446912127062e+00 -7.3602779349035799e+01 2.2696459477467674e+00 0 0 0
189 1 6.8593204567291606e+00 -7.5317440202232660e+01 4.6214578759214053e-01 0 0 0
204 1 4.5730273869098079e+00 -7.6460543383989204e+01 4.6214582712763269e-01 0 0 0
205 1 5.1445564295005815e+00 -7.4745887656123074e+01 2.2696458551931342e+00 0 0 0
159 1 1.0860374315119286e+01 -7.4745887596326867e+01 2.2696458562421813e+00 0 0 0
161 1 1.0288845201561406e+01 -7.6460543966297649e+01 4.6214582647525693e-01 0 0 0
186 1 8.5740813114608159e+00 -7.5888990734983494e+01 2.2696457516880506e+00 0 0 0
188 1 9.1456101382745487e+00 -7.4174334693596549e+01 4.6214575971873162e-01 0 0 0
163 1 5.7179319917720661e-01 -7.1316566787253933e+01 2.2696460939013887e+00 0 0 0
164 1 2.2865592554554039e+00 -7.1888123894358969e+01 4.6214573582833302e-01 0 0 0
218 1 2.8580864702919460e+00 -7.0173463373793240e+01 2.2696461529122383e+00 0 0 0
206 1 4.0013205581373779e+00 -7.2459675264827766e+01 2.2696460210441933e+00 0 0 0
207 1 5.7160836003172237e+00 -7.3031228482145409e+01 4.6214574020517474e-01 0 0 0
209 1 6.2876102468063060e+00 -7.1316566652495368e+01 2.2696460899438802e+00 0 0 0
212 1 4.5728477614481760e+00 -7.0745013368698594e+01 4.6214573006970083e-01 0 0 0
165 1 2.6696552949090346e-04 -7.3031228708134208e+01 4.6214574358829663e-01 1 0 0
190 1 9.7171372595909435e+00 -7.2459675208066713e+01 2.2696460269660781e+00 0 0 0
191 1 8.5739031030134996e+00 -7.0173463613447240e+01 2.2696461536603167e+00 0 0 0
192 1 1.0288664828049301e+01 -7.0745013607545800e+01 4.6214573522434715e-01 0 0 0
193 1 8.0023763784584467e+00 -7.1888123901496982e+01 4.6214573759343563e-01 0 0 0
166 1 1.7148512555442776e+00 -6.7887252999823488e+01 2.2696462792198062e+00 0 0 0
167 1 1.1433227693794525e+00 -6.9601911225391532e+01 4.6214572657332809e-01 0 0 0
168 1 2.2863795295874110e+00 -6.6172587083562178e+01 4.6214565782068134e-01 0 0 0
219 1 3.4296108480354204e+00 -6.8458801730688222e+01 4.6214570870328442e-01 0 0 0
210 1 5.1443765560836212e+00 -6.9030357856297343e+01 2.2696462122916685e+00 0 0 0
211 1 6.8591400015604238e+00 -6.9601911705662005e+01 4.6214572380414626e-01 0 0 0
213 1 7.4306690396655739e+00 -6.7887252510438174e+01 2.2696462774731434e+00 0 0 0
216 1 5.7159045743793815e+00 -6.7315696513933943e+01 4.6214568335220096e-01 0 0 0
220 1 4.0011454696563771e+00 -6.6744143638431922e+01 2.2696463438875045e+00 0 0 0
194 1 1.0860194166934656e+01 -6.9030357493032213e+01 2.2696462170377218e+00 0 0 0
195 1 9.7169616093699513e+00 -6.6744144235372829e+01 2.2696463452593019e+00 0 0 0
196 1 8.7904924569670584e-05 -6.7315697387772971e+01 4.6214568672864836e-01 1 0 0
197 1 9.1454275323237191e+00 -6.8458801026988198e+01 4.6214571020650724e-01 0 0 0
215 1 8.0021968167209163e+00 -6.6172588081607842e+01 4.6214565601911878e-01 0 0 0
198 1 5.7161918180342486e-01 -6.5601036573356964e+01 2.2696464070882851e+00 0 0 0
221 1 2.8579076687018383e+00 -6.4457931318694904e+01 2.2696464588569238e+00 0 0 0
224 1 1.1431446377200203e+00 -6.3886379239843194e+01 4.6214562539123277e-01 0 0 0
225 1 1.7146714777310865e+00 -6.2171717552147896e+01 2.2696464810943238e+00 0 0 0
257 1 3.4294364457073745e+00 -6.2743273751121478e+01 4.6214563908271850e-01 0 0 0
214 1 6.2874353126100644e+00 -6.5601037270133958e+01 2.2696464057979169e+00 0 0 0
222 1 4.5726716974910007e+00 -6.5029483724269852e+01 4.6214563366595163e-01 0 0 0
232 1 7.4304877680087627e+00 -6.2171718324769131e+01 2.2696464786179371e+00 0 0 0
234 1 6.8589615052156638e+00 -6.3886378140201728e+01 4.6214562328162034e-01 0 0 0
254 1 5.1441977999867072e+00 -6.3314824563797508e+01 2.2696464858297691e+00 0 0 0
199 1 1.0288488483923802e+01 -6.5029482648708637e+01 4.6214563235248646e-01 0 0 0
217 1 8.5737254923292703e+00 -6.4457930556722488e+01 2.2696464560061940e+00 0 0 0
223 1 1.0860014030366571e+01 -6.3314825348743021e+01 2.2696464839559343e+00 0 0 0
233 1 9.1452535325858406e+00 -6.2743274834427638e+01 4.6214563476793002e-01 0 0 0
226 1 5.7143896167848196e-01 -5.9885504517537441e+01 2.2696463628982695e+00 0 0 0
227 1 2.2862055368630969e+00 -6.0457060988514002e+01 4.6214574627098576e-01 0 0 0
288 1 2.8577302590230951e+00 -5.8742398106686444e+01 2.2696462661407106e+00 0 0 0
228 1 1.1431545383790965e+01 -6.1600164400453593e+01 4.6214567642312332e-01 0 0 0
255 1 4.0009641698815184e+00 -6.1028609487650442e+01 2.2696464417800506e+00 0 0 0
256 1 5.7157284652829521e+00 -6.1600165450762596e+01 4.6214567913407462e-01 0 0 0
258 1 6.2872566598090209e+00 -5.9885503884373414e+01 2.2696463627089343e+00 0 0 0
261 1 4.5724931866654863e+00 -5.9313949959484454e+01 4.6214583242733487e-01 0 0 0
235 1 9.7167818678310667e+00 -6.1028608756560295e+01 2.2696464364691988e+00 0 0 0
236 1 8.5735465312665973e+00 -5.8742398658325541e+01 2.2696462602280358e+00 0 0 0
237 1 1.0288310395728750e+01 -5.9313950860513160e+01 4.6214582707671420e-01 0 0 0
238 1 8.0020224204960950e+00 -6.0457060004231977e+01 4.6214574170068717e-01 0 0 0
229 1 1.7144954217674158e+00 -5.6456186833455455e+01 2.2696460588652103e+00 0 0 0
230 1 1.1429682440753175e+00 -5.8170847962487670e+01 4.6214592304704383e-01 0 0 0
231 1 2.2860226308159497e+00 -5.4741526649872455e+01 4.6214607193921925e-01 0 0 0
241 1 1.1431366624753254e+01 -5.5884633619622598e+01 4.6214605941484166e-01 -1 0 0
289 1 3.4292570707010528e+00 -5.7027738361005483e+01 4.6214600650055065e-01 0 0 0
259 1 5.1440225937603250e+00 -5.7599295392821041e+01 2.2696461562259818e+00 0 0 0
260 1 6.8587855406083431e+00 -5.8170848811628218e+01 4.6214592074241112e-01 0 0 0
262 1 7.4303131707334540e+00 -5.6456186441318771e+01 2.2696460562485274e+00 0 0 0
265 1 5.7155492315446796e+00 -5.5884632933415972e+01 4.6214605944854026e-01 0 0 0
290 1 4.0007891837054030e+00 -5.5313082340111805e+01 2.2696459876383450e+00 0 0 0
239 1 1.0859840345703443e+01 -5.7599294915828388e+01 2.2696461534383139e+00 0 0 0
240 1 9.7166054800340920e+00 -5.5313082694929356e+01 2.2696459869470105e+00 0 0 0
242 1 9.1450736926239227e+00 -5.7027737591315855e+01 4.6214600290890395e-01 0 0 0
264 1 8.0018399711029264e+00 -5.4741527275548705e+01 4.6214607108198419e-01 0 0 0
243 1 5.7125965357364561e-01 -5.4169974059674431e+01 2.2696459589732649e+00 0 0 0
245 1 1.1427884689777157e+00 -5.2455318446394777e+01 4.6214594722704111e-01 0 0 0
291 1 2.8575512200642188e+00 -5.3026871362073720e+01 2.2696459703258087e+00 0 0 0
296 1 3.4290786042536276e+00 -5.1312210663949784e+01 4.6214581654274234e-01 0 0 0
263 1 6.2870760682254963e+00 -5.4169974429848246e+01 2.2696459577878665e+00 0 0 0
269 1 6.8586054674483625e+00 -5.2455317940546770e+01 4.6214594945943976e-01 0 0 0
292 1 4.5723132521889669e+00 -5.3598422225532488e+01 4.6214603399318954e-01 0 0 0
293 1 5.1438413935831324e+00 -5.1883763298145610e+01 2.2696460210726768e+00 0 0 0
244 1 1.0859658211823096e+01 -5.1883763776687132e+01 2.2696460254951272e+00 0 0 0
246 1 1.0288130048936081e+01 -5.3598421654584321e+01 4.6214603713906083e-01 0 0 0
266 1 8.5733686225849457e+00 -5.3026870952630439e+01 2.2696459763712933e+00 0 0 0
268 1 9.1448953423405452e+00 -5.1312211128542238e+01 4.6214582709189583e-01 0 0 0
247 1 1.7143166171299165e+00 -5.0740660233560170e+01 2.2696460933457603e+00 0 0 0
248 1 5.7107844281715503e-01 -4.8454449911037159e+01 2.2696462212114561e+00 0 0 0
249 1 2.2858404930112659e+00 -4.9026000282860629e+01 4.6214551570386692e-01 0 0 0
250 1 1.1431187178743842e+01 -5.0169107888417471e+01 4.6214567440926790e-01 -1 0 0
316 1 2.8573662902254431e+00 -4.7311340321647968e+01 2.2696462303519818e+00 0 0 0
267 1 7.4301336636871600e+00 -5.0740660806887874e+01 2.2696460986672284e+00 0 0 0
294 1 4.0006057110826987e+00 -4.9597554247881185e+01 2.2696461622101896e+00 0 0 0
295 1 5.7153696707665400e+00 -5.0169108320046199e+01 4.6214566971317178e-01 0 0 0
297 1 6.2868950491784981e+00 -4.8454449179901971e+01 2.2696462214564557e+00 0 0 0
300 1 4.5721319194494408e+00 -4.7882896443521119e+01 4.6214538580456882e-01 0 0 0
270 1 9.7164224435655093e+00 -4.9597553592001987e+01 2.2696461742534675e+00 0 0 0
271 1 8.5731837255100896e+00 -4.7311341069045604e+01 2.2696462412039673e+00 0 0 0
272 1 1.0287948085416632e+01 -4.7882896865055550e+01 4.6214539465958387e-01 0 0 0
273 1 8.0016582043814442e+00 -4.9025999862982516e+01 4.6214552542640835e-01 0 0 0
251 1 1.7141303950404849e+00 -4.5025129017142362e+01 2.2696461191292916e+00 0 0 0
252 1 1.1426040489324856e+00 -4.6739788051666324e+01 4.6214529863943754e-01 0 0 0
253 1 2.2856543908573355e+00 -4.3310468558441706e+01 4.6214529143937277e-01 0 0 0
276 1 1.1431000524571841e+01 -4.4453577402788191e+01 4.6214525714263738e-01 -1 0 0
317 1 3.4288943904711169e+00 -4.5596683800146138e+01 4.6214525394245010e-01 0 0 0
298 1 5.1436573485425896e+00 -4.6168236861269349e+01 2.2696462014311996e+00 0 0 0
299 1 6.8584202241553358e+00 -4.6739788475515113e+01 4.6214530110156099e-01 0 0 0
301 1 7.4299472106406599e+00 -4.5025128355295067e+01 2.2696461219645885e+00 0 0 0
304 1 5.7151839676462144e+00 -4.4453576912046174e+01 4.6214525826233604e-01 0 0 0
318 1 4.0004190200487377e+00 -4.3882023330616924e+01 2.2696459989269377e+00 0 0 0
274 1 1.0859473986937076e+01 -4.6168236136672029e+01 2.2696462045955257e+00 0 0 0
275 1 9.7162359560479263e+00 -4.3882023868685444e+01 2.2696459986660318e+00 0 0 0
277 1 9.1447120883566040e+00 -4.5596683340019759e+01 4.6214525943549445e-01 0 0 0
303 1 8.0014712651205748e+00 -4.3310469060834180e+01 4.6214529085115114e-01 0 0 0
278 1 5.7088986414867526e-01 -4.2738916150468988e+01 2.2696458524771801e+00 0 0 0
280 1 1.1424095641336522e+00 -4.1024256655470907e+01 4.6214537215613261e-01 0 0 0
319 1 2.8571749353645468e+00 -4.1595809576280580e+01 2.2696457043725369e+00 0 0 0
324 1 3.4286955380777586e+00 -3.9881151720664754e+01 4.6214538300065555e-01 0 0 0
302 1 6.2867065002703617e+00 -4.2738916522860528e+01 2.2696458531200223e+00 0 0 0
308 1 6.8582260250701799e+00 -4.1024256193815539e+01 4.6214537002658651e-01 0 0 0
320 1 4.5719411507720080e+00 -4.2167364038935226e+01 4.6214533856049705e-01 0 0 0
321 1 5.1434601628264591e+00 -4.0452703684244248e+01 2.2696455692758439e+00 0 0 0
279 1 1.0859276333122279e+01 -4.0452703708248912e+01 2.2696455620236717e+00 0 0 0
281 1 1.0287757934155104e+01 -4.2167363550964325e+01 4.6214533326177393e-01 0 0 0
305 1 8.5729925661365041e+00 -4.1595809388578395e+01 2.2696456978010970e+00 0 0 0
307 1 9.1445133211460536e+00 -3.9881152124730967e+01 4.6214537125435023e-01 0 0 0
282 1 1.7139299041763683e+00 -3.9309597985432212e+01 2.2696454639878088e+00 0 0 0
283 1 5.7068758879291337e-01 -3.7023385517126741e+01 2.2696453620180885e+00 0 0 0
284 1 2.2854534412327387e+00 -3.7594938599832027e+01 4.6214527098281383e-01 0 0 0
285 1 1.1430797880439744e+01 -3.8738045003983274e+01 4.6214533872371311e-01 -1 0 0
330 1 2.8569741175912724e+00 -3.5880278835658281e+01 2.2696453636080332e+00 0 0 0
306 1 7.4297459833606121e+00 -3.9309597847673636e+01 2.2696454576849749e+00 0 0 0
322 1 4.0002160064106134e+00 -3.8166490553285108e+01 2.2696454013744423e+00 0 0 0
323 1 5.7149817861675656e+00 -3.8738045297086430e+01 4.6214534524071871e-01 0 0 0
325 1 6.2865053357416336e+00 -3.7023385882780225e+01 2.2696453643125647e+00 0 0 0
328 1 4.5717400825924148e+00 -3.6451832339525382e+01 4.6214516119131616e-01 0 0 0
309 1 9.7160339093776358e+00 -3.8166490829372236e+01 2.2696453871719404e+00 0 0 0
310 1 8.5727906088904966e+00 -3.5880278442354616e+01 2.2696453527059233e+00 0 0 0
311 1 1.0287557867838501e+01 -3.6451832361371942e+01 4.6214514899327863e-01 0 0 0
312 1 8.0012695459623835e+00 -3.7594938442388120e+01 4.6214526035817727e-01 0 0 0
286 1 1.7137206622305752e+00 -3.3594067425023269e+01 2.2696453555435068e+00 0 0 0
287 1 1.1422068267923915e+00 -3.5308726777261732e+01 4.6214502928557860e-01 0 0 0
314 1 3.4284891451724961e+00 -3.4165619472820495e+01 4.6214490918683421e-01 0 0 0
331 1 1.1430587026551956e+01 -3.3022514252983790e+01 4.6214480398941554e-01 -1 0 0
326 1 5.1432567812902468e+00 -3.4737172834932387e+01 2.2696453656898186e+00 0 0 0
327 1 6.8580243940838681e+00 -3.5308726662266686e+01 4.6214502873161639e-01 0 0 0
329 1 7.4295375993462596e+00 -3.3594067818210689e+01 2.2696453555394576e+00 0 0 0
332 1 5.7147699584159337e+00 -3.3022514599498798e+01 4.6214480883915066e-01 0 0 0
371 1 4.0000036827737580e+00 -3.2450961941355551e+01 2.2696453272646786e+00 0 0 0
313 1 1.0859074004610848e+01 -3.4737173243648421e+01 2.2696453574146780e+00 0 0 0
315 1 9.1443058239067483e+00 -3.4165619737738346e+01 4.6214490287093335e-01 0 0 0
334 1 9.7158209759494891e+00 -3.2450961618564108e+01 2.2696453244989319e+00 0 0 0
333 1 2.2852366681153375e+00 -3.1879408206975192e+01 4.6214473920103194e-01 0 0 0
335 1 5.7047331351678177e-01 -3.1307855023693996e+01 2.2696452588834370e+00 0 0 0
337 1 1.1420052394686175e+00 -2.9593195529147458e+01 4.6214471559553522e-01 0 0 0
372 1 2.8567668193121398e+00 -3.0164749510997254e+01 2.2696451580923385e+00 0 0 0
377 1 3.4283048309591662e+00 -2.8450086059701313e+01 4.6214473128184480e-01 0 0 0
346 1 6.2862907642522687e+00 -3.1307854762046365e+01 2.2696452607641411e+00 0 0 0
351 1 6.8578225194134061e+00 -2.9593195878654903e+01 4.6214471790032630e-01 0 0 0
373 1 4.5715264812662957e+00 -3.0736299296480027e+01 4.6214471075355662e-01 0 0 0
374 1 5.1430627185042379e+00 -2.9021639979548805e+01 2.2696450353142170e+00 0 0 0
336 1 1.0858880132374033e+01 -2.9021639837083150e+01 2.2696450428290058e+00 0 0 0
338 1 1.0287343720403006e+01 -3.0736299686507763e+01 4.6214471477060959e-01 0 0 0
347 1 8.0010535526492976e+00 -3.1879407822145041e+01 4.6214474169286690e-01 0 0 0
348 1 8.5725833488996255e+00 -3.0164749715933816e+01 2.2696451655888428e+00 0 0 0
350 1 9.1441216057584604e+00 -2.8450085813485288e+01 4.6214474447033271e-01 0 0 0
339 1 1.7135476922406694e+00 -2.7878533814480011e+01 2.2696449112988888e+00 0 0 0
340 1 5.7033556650661810e-01 -2.5592315072512772e+01 2.2696447351228337e+00 0 0 0
341 1 2.2850908955977505e+00 -2.6163869148647539e+01 4.6214475097079766e-01 0 0 0
342 1 1.1430424340316472e+01 -2.7306979150859618e+01 4.6214476276484029e-01 -1 0 0
349 1 7.4293649702366782e+00 -2.7878533765402544e+01 2.2696449161131391e+00 0 0 0
375 1 3.9998489144082847e+00 -2.6735423821434321e+01 2.2696447954509082e+00 0 0 0
376 1 5.7146072084110324e+00 -2.7306979049405214e+01 4.6214475289219176e-01 0 0 0
378 1 6.2861526465520665e+00 -2.5592314984741886e+01 2.2696447274391693e+00 0 0 0
381 1 4.5713942357956983e+00 -2.5020759650206454e+01 4.6214471127367734e-01 0 0 0
352 1 9.7156658106374021e+00 -2.6735423796096853e+01 2.2696448123790822e+00 0 0 0
354 1 1.0287211271129021e+01 -2.5020759796090339e+01 4.6214472594982586e-01 0 0 0
355 1 8.0009079225808595e+00 -2.6163869128818728e+01 4.6214475944510669e-01 0 0 0
343 1 1.7134103913432293e+00 -2.2162985742885883e+01 2.2696448190445668e+00 0 0 0
344 1 1.1418759652421497e+00 -2.3877649252056202e+01 4.6214464234259650e-01 0 0 0
358 1 1.1430283697618068e+01 -2.1591434388797051e+01 4.6214438183143203e-01 -1 0 0
406 1 2.8566349106769824e+00 -2.4449202695623050e+01 2.2696447064802627e+00 0 0 0
407 1 3.4281722268904802e+00 -2.2734543950815084e+01 4.6214451732421064e-01 0 0 0
379 1 5.1429335577081563e+00 -2.3306098608075093e+01 2.2696447349344013e+00 0 0 0
380 1 6.8576930314110873e+00 -2.3877649530118500e+01 4.6214463611933621e-01 0 0 0
382 1 7.4292276287931873e+00 -2.2162985337708442e+01 2.2696448130443914e+00 0 0 0
385 1 5.7144668044039655e+00 -2.1591433953106584e+01 4.6214437223142935e-01 0 0 0