LAMMPS data file via write_data, version 15 May 2015, timestep = 990

1760 atoms
5 atom types

0.0000000000000000e+00 2.1989187000000001e+01 xlo xhi
-1.3093196216677384e+02 1.3093196216677384e+02 ylo yhi
0.0000000000000000e+00 3.6150000000000002e+00 zlo zhi

Atoms # atomic

38 1 2.5179014182481083e+00 -1.2813371237591852e+02 1.8074999971492358e+00 0 0 0
39 1 4.2826099333233474e+00 -1.2862083448504214e+02 3.6149999971437130e+00 0 0 0
40 1 2.1917067953113563e+00 -1.2975794301881751e+02 3.6149999971377063e+00 0 0 0
75 1 3.7972504984908273e-01 -1.2940875881766382e+02 1.8074999971749504e+00 0 0 0
77 1 6.0496950918000403e-01 -1.2776346027457384e+02 3.6149999971349254e+00 0 0 0
218 1 3.7638230955270413e+00 -1.3093195702826023e+02 1.8074999971424688e+00 0 1 0
212 1 5.4979125170619543e-02 -1.3093195702834581e+02 3.6149999971010924e+00 0 1 0
8 1 5.8777010505556513e+00 -1.2899441609500599e+02 1.8074999971442449e+00 0 0 0
9 1 7.6048665805876041e+00 -1.2909682302044737e+02 3.6149999971426339e+00 0 0 0
11 1 7.9089049627916621e+00 -1.2725142806457568e+02 1.8074999971422623e+00 0 0 0
216 1 7.4943470932365104e+00 -1.3093195702828214e+02 1.8074999971509134e+00 0 1 0
215 1 5.6204410363142001e+00 -1.3093195702828675e+02 3.6149999971458984e+00 0 0 0
1 1 9.4123180489909686e+00 -1.2917458008805514e+02 1.8074999971469163e+00 0 0 0
4 1 9.7331063362341563e+00 -1.2749504463987751e+02 3.6149999971383626e+00 0 0 0
149 1 1.3186300295309927e+01 -1.2975794301885901e+02 1.8074999971396850e+00 0 0 0
186 1 1.1374318549784753e+01 -1.2940875881777984e+02 3.6149999971341660e+00 0 0 0
187 1 1.1599563009173309e+01 -1.2776346027451254e+02 1.8074999971453065e+00 0 0 0
217 1 9.2967262111179405e+00 -1.3093195702825483e+02 3.6149999971471374e+00 0 1 0
213 1 1.1049572625158829e+01 -1.3093195702817366e+02 1.8074999971692358e+00 0 1 0
116 1 1.6872294550561467e+01 -1.2899441609500408e+02 3.6149999971415046e+00 0 0 0
151 1 1.5277203433269621e+01 -1.2862083448503071e+02 1.8074999971415604e+00 0 0 0
154 1 1.3512494918305288e+01 -1.2813371237585392e+02 3.6149999971362363e+00 0 0 0
1760 1 1.6615034536314994e+01 -1.3093195702826935e+02 1.8074999971469965e+00 0 1 0
219 1 1.4758416595513708e+01 -1.3093195702828257e+02 3.6149999971478675e+00 0 1 0
76 1 2.0727699836228116e+01 -1.2749504463991204e+02 1.8074999971517178e+00 0 0 0
78 1 2.0406911548950283e+01 -1.2917458008797621e+02 3.6149999971364259e+00 0 0 0
113 1 1.8599460080566843e+01 -1.2909682302041924e+02 1.8074999971455696e+00 0 0 0
115 1 1.8903498462768002e+01 -1.2725142806459236e+02 3.6149999971458944e+00 0 0 0
211 1 1.8488940593228097e+01 -1.3093195702827097e+02 3.6149999971419060e+00 0 1 0
214 1 2.0291319711116341e+01 -1.3093195702828970e+02 1.8074999971573686e+00 0 1 0
42 1 3.0015119596603754e+00 -1.2462874796370194e+02 1.8074999971561543e+00 0 0 0
44 1 2.7517998260782566e+00 -1.2641288010472172e+02 3.6149999971473887e+00 0 0 0
79 1 9.1270031040579036e-01 -1.2608171952549991e+02 1.8074999971555292e+00 0 0 0
81 1 1.2045026355303061e+00 -1.2433124314668237e+02 3.6149999971575157e+00 0 0 0
12 1 6.5216789156506705e+00 -1.2516034004984044e+02 1.8074999971453214e+00 0 0 0
13 1 8.2739672827687833e+00 -1.2545673086774525e+02 3.6149999971398623e+00 0 0 0
14 1 6.2168845114851505e+00 -1.2700951450099677e+02 3.6149999971433791e+00 0 0 0
15 1 8.6078029866389052e+00 -1.2368309642986223e+02 1.8074999971384322e+00 0 0 0
18 1 6.8247223893008853e+00 -1.2337663011747732e+02 3.6149999971442770e+00 0 0 0
41 1 4.5341036553544720e+00 -1.2672860085205764e+02 1.8074999971477721e+00 0 0 0
43 1 4.7727456985845889e+00 -1.2489665003206039e+02 3.6149999971500288e+00 0 0 0
3 1 1.0061886522900554e+01 -1.2576261795505366e+02 1.8074999971380483e+00 0 0 0
6 1 1.0398893619341585e+01 -1.2400945747866056e+02 3.6149999971336491e+00 0 0 0
188 1 1.1907293810402020e+01 -1.2608171952551329e+02 3.6149999971355613e+00 0 0 0
189 1 1.2199096135544355e+01 -1.2433124314664424e+02 1.8074999971342960e+00 0 0 0
114 1 1.7211478011505267e+01 -1.2700951450099922e+02 1.8074999971455292e+00 0 0 0
120 1 1.7516272415659422e+01 -1.2516034004982231e+02 3.6149999971475952e+00 0 0 0
152 1 1.3746393326079049e+01 -1.2641288010473556e+02 1.8074999971388244e+00 0 0 0
153 1 1.5528697155280177e+01 -1.2672860085206896e+02 3.6149999971414077e+00 0 0 0
155 1 1.5767339198566635e+01 -1.2489665003202317e+02 1.8074999971430585e+00 0 0 0
158 1 1.3996105459679836e+01 -1.2462874796366654e+02 3.6149999971369349e+00 0 0 0
80 1 2.1393487119322948e+01 -1.2400945747868627e+02 1.8074999971598886e+00 0 0 0
82 1 2.1056480022880411e+01 -1.2576261795504058e+02 3.6149999971509947e+00 0 0 0
117 1 1.9268560782733154e+01 -1.2545673086773600e+02 1.8074999971523935e+00 0 0 0
118 1 1.7819315889302775e+01 -1.2337663011747539e+02 1.8074999971496388e+00 0 0 0
119 1 1.9602396486618311e+01 -1.2368309642987683e+02 3.6149999971555400e+00 0 0 0
46 1 3.5591990331804091e+00 -1.2102926764415007e+02 1.8074999971604748e+00 0 0 0
48 1 3.2703260615665330e+00 -1.2282627003831132e+02 3.6149999971589386e+00 0 0 0
83 1 1.4953612553305897e+00 -1.2254152899165462e+02 1.8074999971639365e+00 0 0 0
84 1 9.6625460491876741e-03 -1.2044736294580460e+02 1.8074999971641017e+00 0 0 0
85 1 1.7856308403113132e+00 -1.2074322368740062e+02 3.6149999971643427e+00 0 0 0
16 1 7.1280407591982202e+00 -1.2160789676153910e+02 1.8074999971426728e+00 0 0 0
22 1 7.4301842832858247e+00 -1.1983784750540076e+02 3.6149999971357518e+00 0 0 0
45 1 5.0450673633030281e+00 -1.2309598549820934e+02 1.8074999971528072e+00 0 0 0
47 1 5.3391809745511951e+00 -1.2131375996566769e+02 3.6149999971518039e+00 0 0 0
5 1 1.0709016031065767e+01 -1.2223398872946889e+02 1.8074999971292656e+00 0 0 0
17 1 8.9206508473005481e+00 -1.2191697170368924e+02 3.6149999971338000e+00 0 0 0
19 1 9.2201386221534047e+00 -1.2014320758534647e+02 1.8074999971263339e+00 0 0 0
190 1 1.2489954755344884e+01 -1.2254152899163215e+02 3.6149999971288196e+00 0 0 0
191 1 1.2780224340323187e+01 -1.2074322368736986e+02 1.8074999971211723e+00 0 0 0
194 1 1.1004256046050052e+01 -1.2044736294579258e+02 3.6149999971207345e+00 0 0 0
156 1 1.4264919561587364e+01 -1.2282627003828897e+02 1.8074999971336660e+00 0 0 0
157 1 1.6039660863301510e+01 -1.2309598549818918e+02 3.6149999971408824e+00 0 0 0
159 1 1.6333774474570859e+01 -1.2131375996562903e+02 1.8074999971368044e+00 0 0 0
162 1 1.4553792533205485e+01 -1.2102926764411202e+02 3.6149999971268825e+00 0 0 0
86 1 2.1703609531052759e+01 -1.2223398872947629e+02 3.6149999971633031e+00 0 0 0
121 1 1.9915244347299076e+01 -1.2191697170367920e+02 1.8074999971584707e+00 0 0 0
122 1 1.8424777783312365e+01 -1.1983784750537993e+02 1.8074999971449963e+00 0 0 0
123 1 2.0214732122167941e+01 -1.2014320758534008e+02 3.6149999971566142e+00 0 0 0
124 1 1.8122634259213999e+01 -1.2160789676151209e+02 3.6149999971488853e+00 0 0 0
50 1 4.1578972175787090e+00 -1.1746040261803390e+02 1.8074999971501733e+00 0 0 0
52 1 3.8574509690748049e+00 -1.1924202779214750e+02 3.6149999971564766e+00 0 0 0
87 1 2.0790957680675439e+00 -1.1895051626480328e+02 1.8074999971616705e+00 0 0 0
88 1 5.9493930935651140e-01 -1.1687084450428210e+02 1.8074999971548495e+00 0 0 0
89 1 2.3756384831996642e+00 -1.1716453138725440e+02 3.6149999971555205e+00 0 0 0
90 1 3.0133289391086648e-01 -1.1865811320619224e+02 3.6149999971608064e+00 0 0 0
20 1 7.7292521494239210e+00 -1.1806119131675084e+02 1.8074999971271843e+00 0 0 0
26 1 8.0260376580366692e+00 -1.1627936199084660e+02 3.6149999971172990e+00 0 0 0
49 1 5.6409848683608628e+00 -1.1953697929322243e+02 1.8074999971473555e+00 0 0 0
51 1 5.9427514479026966e+00 -1.1775974615056590e+02 3.6149999971391007e+00 0 0 0
53 1 6.2420360888249506e+00 -1.1597989845372916e+02 1.8074999971303225e+00 0 0 0
21 1 9.5145615779146482e+00 -1.1836159957791673e+02 3.6149999971161595e+00 0 0 0
23 1 9.8085520165996360e+00 -1.1657646652342781e+02 1.8074999971058110e+00 0 0 0
192 1 1.1295926393894325e+01 -1.1865811320619935e+02 1.8074999971104400e+00 0 0 0
193 1 1.3073689268067623e+01 -1.1895051626479339e+02 3.6149999971109232e+00 0 0 0
198 1 1.1589532809332159e+01 -1.1687084450429313e+02 3.6149999970996700e+00 0 0 0
160 1 1.4852044469093876e+01 -1.1924202779212641e+02 1.8074999971182384e+00 0 0 0
161 1 1.6635578368386952e+01 -1.1953697929319655e+02 3.6149999971302473e+00 0 0 0
163 1 1.6937344947926569e+01 -1.1775974615053991e+02 1.8074999971226104e+00 0 0 0
165 1 1.7236629588836514e+01 -1.1597989845372058e+02 3.6149999971156825e+00 0 0 0
166 1 1.5152490717587700e+01 -1.1746040261801838e+02 3.6149999971087552e+00 0 0 0
195 1 1.3370231983188720e+01 -1.1716453138725262e+02 1.8074999971001786e+00 0 0 0
125 1 2.0509155077944015e+01 -1.1836159957789553e+02 1.8074999971525179e+00 0 0 0
126 1 1.9020631158060546e+01 -1.1627936199082981e+02 1.8074999971316401e+00 0 0 0
127 1 2.0803145516629947e+01 -1.1657646652341073e+02 3.6149999971459335e+00 0 0 0
128 1 1.8723845649456063e+01 -1.1806119131672259e+02 3.6149999971388915e+00 0 0 0
91 1 2.6736801274286517e+00 -1.1538220427812630e+02 1.8074999971484604e+00 0 0 0
92 1 1.1884516178306515e+00 -1.1330356360565330e+02 1.8074999971421850e+00 0 0 0
93 1 2.9718660676236834e+00 -1.1360083045873731e+02 3.6149999971424362e+00 0 0 0
94 1 8.9102798252302429e-01 -1.1508633107999360e+02 3.6149999971480620e+00 0 0 0
24 1 8.3220477691037580e+00 -1.1449533417177098e+02 1.8074999971094452e+00 0 0 0
30 1 8.6182981504334233e+00 -1.1271117257235434e+02 3.6149999971057354e+00 0 0 0
54 1 4.7557719868823520e+00 -1.1389917190429345e+02 1.8074999971353554e+00 0 0 0
55 1 6.5393784171274199e+00 -1.1419775570090123e+02 3.6149999971229154e+00 0 0 0
56 1 4.4575414923203596e+00 -1.1568018749498566e+02 3.6149999971421312e+00 0 0 0
57 1 6.8359595172811281e+00 -1.1241447771799191e+02 1.8074999971188921e+00 0 0 0
60 1 5.0530198194717890e+00 -1.1211697774822463e+02 3.6149999971314823e+00 0 0 0
25 1 1.0103857489897283e+01 -1.1479128016742344e+02 3.6149999970974389e+00 0 0 0
27 1 1.0400440568024056e+01 -1.1300727386512156e+02 1.8074999970936141e+00 0 0 0
196 1 1.1885621482499545e+01 -1.1508633108001422e+02 1.8074999970916759e+00 0 0 0
202 1 1.2183045117821113e+01 -1.1330356360566965e+02 3.6149999970878781e+00 0 0 0
164 1 1.5452134992316161e+01 -1.1568018749498899e+02 1.8074999971014314e+00 0 0 0
167 1 1.7533971917124518e+01 -1.1419775570089826e+02 1.8074999971099832e+00 0 0 0
168 1 1.6047613319459369e+01 -1.1211697774823330e+02 1.8074999970964847e+00 0 0 0
170 1 1.5750365486871075e+01 -1.1389917190430079e+02 3.6149999970967874e+00 0 0 0
197 1 1.3668273627411502e+01 -1.1538220427814079e+02 3.6149999970926903e+00 0 0 0
199 1 1.3966459567609149e+01 -1.1360083045875157e+02 1.8074999970882881e+00 0 0 0
129 1 2.1098450989916650e+01 -1.1479128016740339e+02 1.8074999971400501e+00 0 0 0
130 1 1.9612891650423922e+01 -1.1271117257234931e+02 1.8074999971233421e+00 0 0 0
131 1 2.1395034068024437e+01 -1.1300727386510948e+02 3.6149999971354947e+00 0 0 0
132 1 1.9316641269113170e+01 -1.1449533417175806e+02 3.6149999971260960e+00 0 0 0
169 1 1.7830553017266396e+01 -1.1241447771799501e+02 3.6149999971087063e+00 0 0 0
95 1 3.2695992654706392e+00 -1.1181907374436518e+02 1.8074999971386412e+00 0 0 0
96 1 1.7836770556097132e+00 -1.0973910871495336e+02 1.8074999971395498e+00 0 0 0
97 1 3.5668728365045785e+00 -1.1003667540108603e+02 3.6149999971383218e+00 0 0 0
98 1 1.4861637716034579e+00 -1.1152138371646204e+02 3.6149999971392708e+00 0 0 0
99 1 3.8639078053446281e+00 -1.0825385598976186e+02 1.8074999971404702e+00 0 0 0
58 1 5.3498753775674652e+00 -1.1033406116218744e+02 1.8074999971308787e+00 0 0 0
59 1 7.1325595651363765e+00 -1.1063101886720148e+02 3.6149999971197122e+00 0 0 0
61 1 7.4294262190677909e+00 -1.0884780109465287e+02 1.8074999971250993e+00 0 0 0
64 1 5.6467228493423915e+00 -1.0855094140284866e+02 3.6149999971349098e+00 0 0 0
28 1 8.9150574366002449e+00 -1.1092762352665775e+02 1.8074999971068455e+00 0 0 0
29 1 1.0697697964641648e+01 -1.1122426908361513e+02 3.6149999970953921e+00 0 0 0
32 1 9.2121733808690234e+00 -1.0914463531021859e+02 3.6149999971134488e+00 0 0 0
150 1 1.0995117888335344e+01 -1.0944170365180368e+02 1.8074999971027206e+00 0 0 0
200 1 1.2480757271609770e+01 -1.1152138371647426e+02 1.8074999970895202e+00 0 0 0
206 1 1.2778270555627991e+01 -1.0973910871495448e+02 3.6149999970964113e+00 0 0 0
172 1 1.6641316349343821e+01 -1.0855094140283140e+02 1.8074999971096692e+00 0 0 0
174 1 1.6344468877561333e+01 -1.1033406116218364e+02 3.6149999971013633e+00 0 0 0
201 1 1.4264192765465976e+01 -1.1181907374437711e+02 3.6149999970891078e+00 0 0 0
203 1 1.4561466336511819e+01 -1.1003667540108371e+02 1.8074999970956043e+00 0 0 0
205 1 1.4858501305357136e+01 -1.0825385598974896e+02 3.6149999971058735e+00 0 0 0
133 1 2.1692291464625157e+01 -1.1122426908360467e+02 1.8074999971333077e+00 0 0 0
134 1 2.0206766880847812e+01 -1.0914463531020668e+02 1.8074999971261898e+00 0 0 0
135 1 5.2438831184886681e-04 -1.0944170365179733e+02 3.6149999971348890e+00 1 0 0
136 1 1.9909650936579364e+01 -1.1092762352665007e+02 3.6149999971231486e+00 0 0 0
171 1 1.8127153065119352e+01 -1.1063101886719579e+02 1.8074999971109760e+00 0 0 0
173 1 1.8424019719055700e+01 -1.0884780109463645e+02 3.6149999971167359e+00 0 0 0
100 1 2.3780233572088942e+00 -1.0617375637113166e+02 1.8074999971444949e+00 0 0 0
101 1 4.1608964525880774e+00 -1.0647089335782576e+02 3.6149999971450195e+00 0 0 0
102 1 2.0809285706214147e+00 -1.0795654390330536e+02 3.6149999971414868e+00 0 0 0
106 1 2.6750747678212763e+00 -1.0439087745030636e+02 3.6149999971459548e+00 0 0 0
137 1 2.9785649905356648e-01 -1.0765917089350046e+02 1.8074999971377355e+00 0 0 0
139 1 5.9505708939513058e-01 -1.0587650937175896e+02 3.6149999971406577e+00 0 0 0
62 1 5.9436960054403363e+00 -1.0676789853945144e+02 1.8074999971411325e+00 0 0 0
63 1 7.7265053827821051e+00 -1.0706485872729098e+02 3.6149999971334612e+00 0 0 0
65 1 8.0236761181395657e+00 -1.0528207111711056e+02 1.8074999971421069e+00 0 0 0
68 1 6.2407793620372489e+00 -1.0498499128220051e+02 3.6149999971467892e+00 0 0 0
103 1 4.4579302313381071e+00 -1.0468795238828120e+02 1.8074999971476169e+00 0 0 0
31 1 9.5094174701503054e+00 -1.0736192075764080e+02 1.8074999971240246e+00 0 0 0
34 1 9.8066453319906373e+00 -1.0557925026524465e+02 3.6149999971356959e+00 0 0 0
111 1 1.1589650589394562e+01 -1.0587650937177004e+02 1.8074999971283952e+00 0 0 0
112 1 1.1292449999070310e+01 -1.0765917089350948e+02 3.6149999971145030e+00 0 0 0
204 1 1.3075522070639069e+01 -1.0795654390330142e+02 1.8074999971080725e+00 0 0 0
176 1 1.7235372862036858e+01 -1.0498499128216983e+02 1.8074999971292451e+00 0 0 0
178 1 1.6938289505445272e+01 -1.0676789853942235e+02 3.6149999971193907e+00 0 0 0
185 1 1.3372616857213727e+01 -1.0617375637112504e+02 3.6149999971218900e+00 0 0 0
207 1 1.5155489952595424e+01 -1.0647089335780466e+02 1.8074999971183505e+00 0 0 0
208 1 1.3669668267805609e+01 -1.0439087745030179e+02 1.8074999971345491e+00 0 0 0
209 1 1.5452523731330166e+01 -1.0468795238826111e+02 3.6149999971303624e+00 0 0 0
138 1 2.0801238831994500e+01 -1.0557925026521900e+02 1.8074999971357306e+00 0 0 0
140 1 2.0504010970139948e+01 -1.0736192075761929e+02 3.6149999971315823e+00 0 0 0
175 1 1.8721098882780112e+01 -1.0706485872726152e+02 1.8074999971244547e+00 0 0 0
177 1 1.9018269618143584e+01 -1.0528207111707752e+02 3.6149999971309432e+00 0 0 0
104 1 2.9721421851714482e+00 -1.0260799674690553e+02 1.8074999971442216e+00 0 0 0
110 1 3.2692371797848931e+00 -1.0082514645525383e+02 3.6149999971392655e+00 0 0 0
141 1 8.9217020972683014e-01 -1.0409372841726986e+02 1.8074999971415988e+00 0 0 0
143 1 1.1892553600265403e+00 -1.0231088826277890e+02 3.6149999971390763e+00 0 0 0
66 1 6.5379168330020656e+00 -1.0320217625355897e+02 1.8074999971508849e+00 0 0 0
67 1 8.3208521852192803e+00 -1.0349932571312669e+02 3.6149999971496247e+00 0 0 0
69 1 8.6180006443423061e+00 -1.0171656002453689e+02 1.8074999971541699e+00 0 0 0
72 1 6.8350616324617173e+00 -1.0141939278002536e+02 3.6149999971516529e+00 0 0 0
105 1 4.7550187191822326e+00 -1.0290507930099346e+02 3.6149999971480282e+00 0 0 0
107 1 5.0521399237128453e+00 -1.0112225683151067e+02 1.8074999971455215e+00 0 0 0
33 1 1.0103814042806063e+01 -1.0379652568857907e+02 1.8074999971463102e+00 0 0 0
36 1 1.0400936404535420e+01 -1.0201373710168548e+02 3.6149999971535904e+00 0 0 0
37 1 1.2183848859998548e+01 -1.0231088826278413e+02 1.8074999971495795e+00 0 0 0
73 1 1.1886763709708422e+01 -1.0409372841728138e+02 3.6149999971403464e+00 0 0 0
7 1 1.4263830679746350e+01 -1.0082514645524658e+02 1.8074999971510286e+00 0 0 0
108 1 1.3966735685138886e+01 -1.0260799674690131e+02 3.6149999971442703e+00 0 0 0
109 1 1.6046733423673473e+01 -1.0112225683150326e+02 3.6149999971442535e+00 0 0 0
147 1 1.5749612219155971e+01 -1.0290507930097826e+02 1.8074999971394756e+00 0 0 0
182 1 1.7532510332988458e+01 -1.0320217625353534e+02 3.6149999971358908e+00 0 0 0
142 1 2.1395529904548045e+01 -1.0201373710167481e+02 1.8074999971361212e+00 0 0 0
144 1 2.1098407542819952e+01 -1.0379652568855556e+02 3.6149999971376818e+00 0 0 0
179 1 1.9315445685221299e+01 -1.0349932571309941e+02 1.8074999971351136e+00 0 0 0
180 1 1.7829655132433846e+01 -1.0141939278001544e+02 1.8074999971383165e+00 0 0 0
181 1 1.9612594144334331e+01 -1.0171656002452534e+02 3.6149999971352749e+00 0 0 0
2 1 3.5663545718449186e+00 -9.9042320208072624e+01 1.8074999971325794e+00 0 0 0
145 1 1.4863450190926344e+00 -1.0052803872505027e+02 1.8074999971332513e+00 0 0 0
241 1 3.8634769518152878e+00 -9.7259506954634489e+01 3.6149999971250519e+00 0 0 0
274 1 2.0805643812043670e+00 -9.6962375029629897e+01 1.8074999971188899e+00 0 0 0
439 1 1.7834500692820814e+00 -9.8745200152489787e+01 3.6149999971260138e+00 0 0 0
70 1 7.1321960900002903e+00 -9.9636603199616118e+01 1.8074999971494450e+00 0 0 0
74 1 5.3492689064549657e+00 -9.9339453159422760e+01 3.6149999971408828e+00 0 0 0
223 1 7.4293164527103190e+00 -9.7853797312917493e+01 3.6149999971465796e+00 0 0 0
238 1 5.6463956908208504e+00 -9.7556648458082648e+01 1.8074999971354730e+00 0 0 0
10 1 1.2480938519068797e+01 -1.0052803872504255e+02 3.6149999971561306e+00 0 0 0
35 1 1.0698038878184645e+01 -1.0023091276319732e+02 1.8074999971581966e+00 0 0 0
71 1 8.9151233042147542e+00 -9.9933762397916894e+01 3.6149999971553242e+00 0 0 0
220 1 9.2122336128014357e+00 -9.8150944406840367e+01 1.8074999971549381e+00 0 0 0
346 1 1.2778043569272105e+01 -9.8745200152466111e+01 1.8074999971593460e+00 0 0 0
383 1 1.0995142234363342e+01 -9.8448078371174972e+01 3.6149999971596394e+00 0 0 0
386 1 1.3075157881212244e+01 -9.6962375029591541e+01 3.6149999971606022e+00 0 0 0
146 1 1.6343862406415393e+01 -9.9339453159417559e+01 1.8074999971461247e+00 0 0 0
210 1 1.4560948071815236e+01 -9.9042320208057390e+01 3.6149999971540265e+00 0 0 0
348 1 1.4858070451804416e+01 -9.7259506954608128e+01 1.8074999971555679e+00 0 0 0
349 1 1.6640989190794055e+01 -9.7556648458074690e+01 3.6149999971462043e+00 0 0 0
148 1 2.1692632378186865e+01 -1.0023091276320505e+02 3.6149999971307820e+00 0 0 0
183 1 1.9909716804194026e+01 -9.9933762397924099e+01 1.8074999971329224e+00 0 0 0
184 1 1.8126789589964226e+01 -9.9636603199619501e+01 3.6149999971378772e+00 0 0 0
310 1 1.8423909952676407e+01 -9.7853797312926716e+01 1.8074999971360945e+00 0 0 0
311 1 2.0206827112772654e+01 -9.8150944406861967e+01 3.6149999971279896e+00 0 0 0
345 1 5.4873435078306443e-04 -9.8448078371201291e+01 1.8074999971241863e+00 1 0 0
239 1 4.1605993111614596e+00 -9.5476694362291596e+01 1.8074999971197172e+00 0 0 0
275 1 5.9477489942163686e-01 -9.4882425460207244e+01 1.8074999971147219e+00 0 0 0
276 1 2.3776830024672848e+00 -9.5179557845403906e+01 3.6149999971139382e+00 0 0 0
277 1 2.9765813087011311e-01 -9.6665250941892339e+01 3.6149999971178297e+00 0 0 0
278 1 2.6748039817457174e+00 -9.3396740942149762e+01 1.8074999971131884e+00 0 0 0
281 1 8.9189198146779181e-01 -9.3099604922099005e+01 3.6149999971152087e+00 0 0 0
221 1 7.7264339730289100e+00 -9.6070981568890900e+01 1.8074999971436256e+00 0 0 0
227 1 8.0235513420900695e+00 -9.4288161603474265e+01 3.6149999971422462e+00 0 0 0
240 1 5.9435163743913888e+00 -9.5773837237015840e+01 3.6149999971309361e+00 0 0 0
242 1 6.2406350622973612e+00 -9.3991022650042581e+01 1.8074999971294108e+00 0 0 0
245 1 4.4577182530723247e+00 -9.3693881624784581e+01 3.6149999971186011e+00 0 0 0
222 1 9.5093447466013377e+00 -9.6368120480969537e+01 3.6149999971543094e+00 0 0 0
224 1 9.8064601773388738e+00 -9.4585296084621405e+01 1.8074999971544752e+00 0 0 0
385 1 1.1292251630892878e+01 -9.6665250941853557e+01 1.8074999971602850e+00 0 0 0
388 1 1.1886485481482081e+01 -9.3099604922062085e+01 1.8074999971647632e+00 0 0 0
390 1 1.1589368399445259e+01 -9.4882425460164924e+01 3.6149999971614690e+00 0 0 0
350 1 1.6938109874383549e+01 -9.5773837236999228e+01 1.8074999971463883e+00 0 0 0
351 1 1.5452311753092136e+01 -9.3693881624742389e+01 1.8074999971595225e+00 0 0 0
352 1 1.7235228562306514e+01 -9.3991022650017399e+01 3.6149999971480224e+00 0 0 0
353 1 1.5155192811169389e+01 -9.5476694362255543e+01 3.6149999971565197e+00 0 0 0
387 1 1.3372276502487249e+01 -9.5179557845357451e+01 1.8074999971625560e+00 0 0 0
389 1 1.3669397481766605e+01 -9.3396740942102866e+01 3.6149999971658984e+00 0 0 0
312 1 2.0503938246573242e+01 -9.6368120480997305e+01 1.8074999971234540e+00 0 0 0
313 1 1.9018144842084528e+01 -9.4288161603473469e+01 1.8074999971344803e+00 0 0 0
314 1 2.0801053677320937e+01 -9.4585296084645705e+01 3.6149999971217559e+00 0 0 0
315 1 1.8721027473006700e+01 -9.6070981568898162e+01 3.6149999971337774e+00 0 0 0
279 1 1.1890098570697603e+00 -9.1316786772212197e+01 1.8074999971214412e+00 0 0 0
280 1 2.9719239211007444e+00 -9.1613926048726768e+01 3.6149999971172480e+00 0 0 0
282 1 3.2690442542397342e+00 -8.9831112313605360e+01 1.8074999971261194e+00 0 0 0
285 1 1.4861294351508587e+00 -8.9533972164878463e+01 3.6149999971311848e+00 0 0 0
225 1 8.3206652950072542e+00 -9.2505341280401467e+01 1.8074999971448289e+00 0 0 0
231 1 8.6177789959321771e+00 -9.0722520307214197e+01 3.6149999971505276e+00 0 0 0
243 1 4.7548380730882043e+00 -9.1911067678662704e+01 1.8074999971217460e+00 0 0 0
244 1 6.5377537111868511e+00 -9.2208206915579666e+01 3.6149999971320712e+00 0 0 0
246 1 6.8348682751836281e+00 -9.0425388969761613e+01 1.8074999971380066e+00 0 0 0
249 1 5.0519586501009277e+00 -9.0128252470662773e+01 3.6149999971283493e+00 0 0 0
226 1 1.0103577022930093e+01 -9.2802471681935700e+01 3.6149999971572924e+00 0 0 0
228 1 1.0400689655134000e+01 -9.1019652274782686e+01 1.8074999971634005e+00 0 0 0
230 1 1.0697807520419481e+01 -8.9236835550276240e+01 3.6149999971716480e+00 0 0 0
392 1 1.2480722935140186e+01 -8.9533972164856237e+01 1.8074999971799799e+00 0 0 0
394 1 1.2183603357070329e+01 -9.1316786772183349e+01 3.6149999971713154e+00 0 0 0
354 1 1.7532347211204431e+01 -9.2208206915550008e+01 1.8074999971536534e+00 0 0 0
355 1 1.6046552150108727e+01 -9.0128252470628183e+01 1.8074999971758225e+00 0 0 0
357 1 1.5749431573106625e+01 -9.1911067678621933e+01 3.6149999971662092e+00 0 0 0
391 1 1.3966517421112560e+01 -9.1613926048686608e+01 1.8074999971725887e+00 0 0 0
393 1 1.4263637754238120e+01 -8.9831112313573044e+01 3.6149999971815658e+00 0 0 0
316 1 2.1098170522927241e+01 -9.2802471681952710e+01 1.8074999971241617e+00 0 0 0
317 1 1.9612372495948510e+01 -9.0722520307203084e+01 1.8074999971476415e+00 0 0 0
318 1 2.1395283155144497e+01 -9.1019652274792193e+01 3.6149999971317941e+00 0 0 0
319 1 1.9315258795016565e+01 -9.2505341280393026e+01 3.6149999971384781e+00 0 0 0
320 1 2.1692401020434851e+01 -8.9236835550284368e+01 1.8074999971432193e+00 0 0 0
356 1 1.7829461775198880e+01 -9.0425388969734499e+01 3.6149999971630167e+00 0 0 0
283 1 1.7832483405833548e+00 -8.7751160315852303e+01 1.8074999971428087e+00 0 0 0
284 1 3.5661641382802163e+00 -8.8048297543089802e+01 3.6149999971371534e+00 0 0 0
286 1 3.8632791983599244e+00 -8.6265480757880297e+01 1.8074999971470433e+00 0 0 0
289 1 2.0803664262708859e+00 -8.5968344872033967e+01 3.6149999971528795e+00 0 0 0
324 1 2.9745408654722233e-01 -8.5671208455373360e+01 1.8074999971656340e+00 0 0 0
247 1 5.3490743439055706e+00 -8.8345433731851898e+01 1.8074999971382602e+00 0 0 0
248 1 7.1319847321539322e+00 -8.8642567431102449e+01 3.6149999971464375e+00 0 0 0
250 1 7.4291041723762925e+00 -8.6859749551146123e+01 1.8074999971554535e+00 0 0 0
253 1 5.6461915321750160e+00 -8.6562615161909804e+01 3.6149999971474585e+00 0 0 0
229 1 8.9148942685978056e+00 -8.8939700835816481e+01 1.8074999971589842e+00 0 0 0
233 1 9.2120146976608996e+00 -8.7156885871941256e+01 3.6149999971668256e+00 0 0 0
396 1 1.3074959926263103e+01 -8.5968344872007521e+01 1.8074999971955996e+00 0 0 0
398 1 1.2777841840568987e+01 -8.7751160315831555e+01 3.6149999971886033e+00 0 0 0
421 1 1.0994928754429509e+01 -8.7454022612432809e+01 1.8074999971798096e+00 0 0 0
422 1 1.1292047586547351e+01 -8.5671208455351859e+01 3.6149999971848623e+00 0 0 0
359 1 1.6640785032163588e+01 -8.6562615161891202e+01 1.8074999971963175e+00 0 0 0
361 1 1.6343667843900558e+01 -8.8345433731826432e+01 3.6149999971867270e+00 0 0 0
395 1 1.4560757638268081e+01 -8.8048297543063427e+01 1.8074999971916905e+00 0 0 0
397 1 1.4857872698347292e+01 -8.6265480757855087e+01 3.6149999971997504e+00 0 0 0
321 1 2.0206608197664575e+01 -8.7156885871943686e+01 1.8074999971708978e+00 0 0 0
322 1 3.3525444048621011e-04 -8.7454022612444859e+01 3.6149999971549156e+00 1 0 0
323 1 1.9909487768611136e+01 -8.8939700835810143e+01 3.6149999971589577e+00 0 0 0
358 1 1.8126578232159275e+01 -8.8642567431084231e+01 1.8074999971746613e+00 0 0 0
360 1 1.8423697672371233e+01 -8.6859749551137710e+01 3.6149999971856239e+00 0 0 0
287 1 2.3774834334522903e+00 -8.4185528479661272e+01 1.8074999971606989e+00 0 0 0
288 1 4.1603945595878091e+00 -8.4482665271146033e+01 3.6149999971543463e+00 0 0 0
293 1 2.6746030180772937e+00 -8.2402711987613969e+01 3.6149999971633360e+00 0 0 0
326 1 5.9457194894520615e-01 -8.3888391858536949e+01 3.6149999971720339e+00 0 0 0
328 1 8.9169152707300803e-01 -8.2105576144602310e+01 1.8074999971738883e+00 0 0 0
251 1 5.9433089237304069e+00 -8.4779800504260024e+01 1.8074999971546770e+00 0 0 0
252 1 7.7262221784044991e+00 -8.5076935486138794e+01 3.6149999971613496e+00 0 0 0
254 1 8.0233398168439276e+00 -8.3294120713873085e+01 1.8074999971634960e+00 0 0 0
257 1 6.2404261347368450e+00 -8.2996985232479787e+01 3.6149999971569771e+00 0 0 0
290 1 4.4575147600424057e+00 -8.2699848732266531e+01 1.8074999971574985e+00 0 0 0
232 1 9.5091359894316216e+00 -8.5374071035541448e+01 1.8074999971726033e+00 0 0 0
234 1 1.0103372034871391e+01 -8.1808441581006250e+01 1.8074999971702768e+00 0 0 0
235 1 9.8062535799384705e+00 -8.3591256317936782e+01 3.6149999971741766e+00 0 0 0
423 1 1.1589165448956058e+01 -8.3888391858508385e+01 1.8074999971866457e+00 0 0 0
424 1 1.1886285027087645e+01 -8.2105576144571302e+01 3.6149999971820255e+00 0 0 0
363 1 1.7235019634740244e+01 -8.2996985232460588e+01 1.8074999972023096e+00 0 0 0
365 1 1.6937902423721567e+01 -8.4779800504244221e+01 3.6149999972014384e+00 0 0 0
399 1 1.5154988059585385e+01 -8.4482665271118435e+01 1.8074999972028205e+00 0 0 0
400 1 1.3669196518094623e+01 -8.2402711987576410e+01 1.8074999971940990e+00 0 0 0
401 1 1.5452108260054457e+01 -8.2699848732233889e+01 3.6149999972010982e+00 0 0 0
402 1 1.3372076933457238e+01 -8.4185528479628545e+01 3.6149999971974141e+00 0 0 0
325 1 2.0800847079927802e+01 -8.3591256317953039e+01 1.8074999971849544e+00 0 0 0
327 1 2.0503729489424501e+01 -8.5374071035552902e+01 3.6149999971803153e+00 0 0 0
331 1 2.1097965534865605e+01 -8.1808441581020531e+01 3.6149999971838080e+00 0 0 0
362 1 1.8720815678394480e+01 -8.5076935486137685e+01 1.8074999971939023e+00 0 0 0
364 1 1.9017933316838036e+01 -8.3294120713871692e+01 3.6149999971965783e+00 0 0 0
291 1 2.9717250225633096e+00 -8.0619896788344377e+01 1.8074999971606014e+00 0 0 0
297 1 3.2688496441832249e+00 -7.8837082317704500e+01 3.6149999971534381e+00 0 0 0
330 1 1.1888124304630756e+00 -8.0322760800671489e+01 3.6149999971696793e+00 0 0 0
332 1 1.4859362739094919e+00 -7.8539944463864913e+01 1.8074999971613821e+00 0 0 0
255 1 6.5375486327089938e+00 -8.1214169832979422e+01 1.8074999971552346e+00 0 0 0
256 1 8.3204600219965830e+00 -8.1511305976901980e+01 3.6149999971599178e+00 0 0 0
258 1 8.6175852650232869e+00 -7.9728490052959856e+01 1.8074999971523060e+00 0 0 0
261 1 6.8346753736458776e+00 -7.9431354289938042e+01 3.6149999971479891e+00 0 0 0
292 1 4.7546368710421794e+00 -8.0917033269954587e+01 3.6149999971553428e+00 0 0 0
294 1 5.0517624420357210e+00 -7.9134219002108992e+01 1.8074999971488099e+00 0 0 0
236 1 1.0697619580402307e+01 -7.8242807917347804e+01 1.8074999971489003e+00 0 0 0
237 1 1.0400495912573371e+01 -8.0025625334317155e+01 3.6149999971613838e+00 0 0 0
260 1 8.9147106570452994e+00 -7.7945673630700938e+01 3.6149999971408024e+00 0 0 0
425 1 1.2183405930473389e+01 -8.0322760800647188e+01 1.8074999971727015e+00 0 0 0
426 1 1.2480529773909860e+01 -7.8539944463853018e+01 3.6149999971594480e+00 0 0 0
369 1 1.7532142132727259e+01 -8.1214169832954155e+01 3.6149999971964299e+00 0 0 0
403 1 1.5749230371066842e+01 -8.0917033269918676e+01 1.8074999971937156e+00 0 0 0
404 1 1.4263443144201318e+01 -7.8837082317677272e+01 1.8074999971709691e+00 0 0 0
405 1 1.6046355942063919e+01 -7.9134219002074957e+01 3.6149999971802771e+00 0 0 0
406 1 1.3966318522584833e+01 -8.0619896788308381e+01 3.6149999971844973e+00 0 0 0
329 1 2.1395089412579178e+01 -8.0025625334322584e+01 1.8074999971786343e+00 0 0 0
335 1 2.1692213080419279e+01 -7.8242807917341580e+01 3.6149999971682658e+00 0 0 0
366 1 1.9315053522003300e+01 -8.1511305976895670e+01 1.8074999971930490e+00 0 0 0
367 1 1.7829268873675026e+01 -7.9431354289908228e+01 1.8074999971855972e+00 0 0 0
368 1 1.9612178765043950e+01 -7.9728490052944565e+01 3.6149999971844546e+00 0 0 0
370 1 1.9909304157073844e+01 -7.7945673630679707e+01 1.8074999971723620e+00 0 0 0
295 1 3.5659761057539470e+00 -7.7054267728807275e+01 1.8074999971457810e+00 0 0 0