LAMMPS data file via write_data, version 15 May 2015, timestep = 1077

1452 atoms
5 atom types

0.0000000000000000e+00 1.8432956000000001e+01 xlo xhi
-1.2889323194605481e+02 1.2889323194605481e+02 ylo yhi
0.0000000000000000e+00 3.6150000000000002e+00 zlo zhi

Atoms # atomic

68 1 3.5299345075989184e+00 -1.2889320518718191e+02 1.0107106085399664e-07 0 0 0
71 1 4.0954494457099928e+00 -1.2538964170169925e+02 8.8738445480629480e-08 0 0 0
73 1 3.6882403804755128e+00 -1.2710703581017684e+02 1.8075000763974174e+00 0 0 0
106 1 1.6675682039067421e+00 -1.2889320518607877e+02 1.8075000853011642e+00 0 0 0
107 1 1.9430169723800068e+00 -1.2697712884654796e+02 8.6474037708228479e-08 0 0 0
110 1 3.4863866050843995e-01 -1.2660616844974066e+02 1.8075000844036033e+00 0 0 0
32 1 9.0264812616830614e+00 -1.2889320520715071e+02 8.8608991255512137e-08 0 0 0
33 1 7.8165595364146343e+00 -1.2610479112656590e+02 8.8846396462116672e-08 0 0 0
35 1 7.4514253133944806e+00 -1.2772149851389891e+02 1.8075000774974366e+00 0 0 0
70 1 5.6440528491923567e+00 -1.2736596970146297e+02 1.2287943551569924e-07 0 0 0
72 1 5.9202657808770969e+00 -1.2570504348617092e+02 1.8075000712626375e+00 0 0 0
103 1 5.2984249923470284e+00 -1.2889320522014793e+02 1.8075000350074135e+00 0 0 0
6 1 1.2746412509277807e+01 -1.2889320521403590e+02 7.0643251248725392e-08 0 0 0
7 1 1.1159494983191131e+01 -1.2697712885827447e+02 8.2801933309895048e-08 0 0 0
8 1 1.2904718376475268e+01 -1.2710703581081343e+02 1.8075000973089397e+00 0 0 0
9 1 1.0884046208813732e+01 -1.2889320519936513e+02 1.8075000909776615e+00 0 0 0
10 1 1.3311927450736428e+01 -1.2538964170910052e+02 7.9305141564844917e-08 0 0 0
34 1 9.5651166787410737e+00 -1.2660616845281977e+02 1.8075000851545315e+00 0 0 0
1 1 1.4860530845311962e+01 -1.2736596970006089e+02 3.9418814878899866e-08 0 0 0
4 1 1.5136743774356203e+01 -1.2570504349059279e+02 1.8075001026284707e+00 0 0 0
105 1 1.8242959256746573e+01 -1.2889320515664602e+02 8.6992901771054676e-08 0 0 0
142 1 1.6667903303470471e+01 -1.2772149850703153e+02 1.8075000937465868e+00 0 0 0
143 1 1.7033037519513186e+01 -1.2610479112750026e+02 7.8436400041681509e-08 0 0 0
173 1 1.4514902991802060e+01 -1.2889320526723034e+02 1.8075001546938285e+00 0 0 0
77 1 4.4986249549424455e+00 -1.2362583089423164e+02 1.8075000829276755e+00 0 0 0
108 1 6.5818692235148057e-01 -1.2472926665244273e+02 8.3736845013504535e-08 0 0 0
109 1 2.3517332894511958e+00 -1.2504416316959748e+02 1.8075000827380852e+00 0 0 0
111 1 2.7353295053785938e+00 -1.2325832992932742e+02 8.5456608456269123e-08 0 0 0
113 1 3.0992777346991618e+00 -1.2149869696144421e+02 1.8075000869762821e+00 0 0 0
114 1 9.7278462555934331e-01 -1.2292023255040920e+02 1.8075000854869419e+00 0 0 0
37 1 8.4272292425784254e+00 -1.2259860079910271e+02 8.5518872428025361e-08 0 0 0
39 1 8.1070030596221763e+00 -1.2438228458749835e+02 1.8075000823497818e+00 0 0 0
74 1 6.2979776991149166e+00 -1.2400876331289631e+02 8.8265394548869835e-08 0 0 0
75 1 4.8802892935119742e+00 -1.2187126477751389e+02 8.6902907536767771e-08 0 0 0
76 1 6.6564215103348170e+00 -1.2224749070666000e+02 1.8075000846630440e+00 0 0 0
11 1 1.1951807520672308e+01 -1.2325832992747659e+02 8.4079746720533421e-08 0 0 0
12 1 1.3715102963356006e+01 -1.2362583088606097e+02 1.8075000873077325e+00 0 0 0
13 1 1.1568211308435083e+01 -1.2504416317971841e+02 1.8075000862723645e+00 0 0 0
17 1 1.2315755744169882e+01 -1.2149869695900466e+02 1.8075000864052313e+00 0 0 0
36 1 9.8746649378289124e+00 -1.2472926666092265e+02 8.4243922060522891e-08 0 0 0
38 1 1.0189262638352837e+01 -1.2292023255664115e+02 1.8075000848922060e+00 0 0 0
3 1 1.5514455697687490e+01 -1.2400876330334044e+02 8.0193727658439684e-08 0 0 0
5 1 1.5872899512906693e+01 -1.2224749069115890e+02 1.8075000873433107e+00 0 0 0
14 1 1.4096767301815550e+01 -1.2187126476557400e+02 8.5356404166958555e-08 0 0 0
144 1 1.7323481047820586e+01 -1.2438228457896825e+02 1.8075000869233198e+00 0 0 0
145 1 1.7643707235253451e+01 -1.2259860078559741e+02 8.5050663845009922e-08 0 0 0
112 1 1.3216138809881848e+00 -1.2114674628543145e+02 8.7842688234474053e-08 0 0 0
115 1 3.4593135490412661e+00 -1.1974056523078119e+02 9.0403706742847589e-08 0 0 0
116 1 2.0389138557204118e+00 -1.1761470655491259e+02 9.5365938257430116e-08 0 0 0
117 1 3.8143995652949068e+00 -1.1797361948143568e+02 1.8075000943816784e+00 0 0 0
118 1 1.6801593754104378e+00 -1.1938098220965324e+02 1.8075000913252117e+00 0 0 0
41 1 9.1236566400821673e+00 -1.1902899401028840e+02 9.0114946615926783e-08 0 0 0
43 1 8.7690117143421649e+00 -1.2080748065346253e+02 1.8075000870319415e+00 0 0 0
78 1 7.0063061695571509e+00 -1.2046345267057777e+02 8.8310152968062994e-08 0 0 0
79 1 5.5873699357498010e+00 -1.1832993257730041e+02 9.2918800209673691e-08 0 0 0
80 1 7.3558354322855264e+00 -1.1868069855237773e+02 1.8075000914490196e+00 0 0 0
81 1 5.2371553837566367e+00 -1.2010485318177930e+02 1.8075000890965836e+00 0 0 0
15 1 1.2675791551207082e+01 -1.1974056522668775e+02 8.8464277681055137e-08 0 0 0
21 1 1.3030877559989564e+01 -1.1797361947981177e+02 1.8075000918833000e+00 0 0 0
40 1 1.0538091886191754e+01 -1.2114674629461577e+02 8.6325194104119873e-08 0 0 0
42 1 1.0896637371680177e+01 -1.1938098221840649e+02 1.8075000891084101e+00 0 0 0
44 1 1.1255391845170928e+01 -1.1761470656424545e+02 9.2388078964944498e-08 0 0 0
16 1 1.4453633389453556e+01 -1.2010485316631711e+02 1.8075000886181720e+00 0 0 0
18 1 1.4803847936963773e+01 -1.1832993256446323e+02 9.1777208499621565e-08 0 0 0
146 1 1.6222784175232942e+01 -1.2046345264996093e+02 8.8213728322017460e-08 0 0 0
147 1 1.7985489714885823e+01 -1.2080748063502554e+02 1.8075000885311208e+00 0 0 0
148 1 1.8340134647059706e+01 -1.1902899399234775e+02 9.1762489606850295e-08 0 0 0
151 1 1.6572313438834229e+01 -1.1868069853298203e+02 1.8075000920190374e+00 0 0 0
119 1 4.1674426474676070e+00 -1.1620079635278728e+02 9.8348797106240227e-08 0 0 0
120 1 2.7488193010152142e+00 -1.1407256353304757e+02 1.0304052944221098e-07 0 0 0
121 1 4.5205830214645646e+00 -1.1442662755558709e+02 1.8075001020839727e+00 0 0 0
122 1 2.3947218204764300e+00 -1.1584490221087600e+02 1.8075000994142485e+00 0 0 0
150 1 2.6444812442499205e-01 -1.1725776498596235e+02 1.8075000958654783e+00 0 0 0
152 1 6.2098403978692995e-01 -1.1548807125378636e+02 9.9979866163835140e-08 0 0 0
82 1 7.7090007144162351e+00 -1.1690479332981053e+02 9.5263271049361720e-08 0 0 0
83 1 6.2919718323075289e+00 -1.1477949393790333e+02 1.0052217769285221e-07 0 0 0
84 1 8.0641098752510594e+00 -1.1513278677410565e+02 1.8075000989332994e+00 0 0 0
85 1 5.9385011887498615e+00 -1.1655368685443176e+02 1.8075000969110320e+00 0 0 0
19 1 1.3383920637225716e+01 -1.1620079635404213e+02 9.5679349776389699e-08 0 0 0
25 1 1.3737061009357870e+01 -1.1442662756036383e+02 1.8075000995959198e+00 0 0 0
45 1 9.8374620293179635e+00 -1.1548807126506351e+02 9.7281555699879618e-08 0 0 0
46 1 1.1611199806857616e+01 -1.1584490221961325e+02 1.8075000962534895e+00 0 0 0
47 1 9.4809261139274401e+00 -1.1725776500187602e+02 1.8075000936355430e+00 0 0 0
48 1 1.1965297288329312e+01 -1.1407256354132764e+02 9.9969146294398570e-08 0 0 0
20 1 1.5154979185872293e+01 -1.1655368684603683e+02 1.8075000957220011e+00 0 0 0
22 1 1.5508449825875468e+01 -1.1477949393591813e+02 9.9716745971534237e-08 0 0 0
149 1 1.6925478719983360e+01 -1.1690479331473817e+02 9.5887290996188312e-08 0 0 0
155 1 1.7280587878059848e+01 -1.1513278676561602e+02 1.8075000999401871e+00 0 0 0
124 1 3.4567950034949217e+00 -1.1052663953979686e+02 1.0844237019469460e-07 0 0 0
126 1 3.1026491935565250e+00 -1.1229947860805193e+02 1.8075001060742302e+00 0 0 0
154 1 9.7611761174032496e-01 -1.1371720385530470e+02 1.8075001036215825e+00 0 0 0
156 1 1.3304520128521358e+00 -1.1194509147294117e+02 1.0650501636177978e-07 0 0 0
158 1 1.6846238863053191e+00 -1.1017248711792855e+02 1.8075001090264102e+00 0 0 0
86 1 8.4194412370831113e+00 -1.1336170006203066e+02 1.0225040947275943e-07 0 0 0
87 1 7.0015433558757536e+00 -1.1123521722850980e+02 1.0646861348106995e-07 0 0 0
88 1 8.7742953181729533e+00 -1.1159014584458609e+02 1.8075001053632116e+00 0 0 0
89 1 6.6466580898480636e+00 -1.1300705301001614e+02 1.8075001037165548e+00 0 0 0
123 1 4.8745333838858427e+00 -1.1265324401387254e+02 1.0509684100767913e-07 0 0 0
125 1 5.2290259534126653e+00 -1.1088074262289159e+02 1.8075001075447197e+00 0 0 0
49 1 1.0546930011607181e+01 -1.1194509147623631e+02 1.0422312346491935e-07 0 0 0
50 1 1.2319127185213500e+01 -1.1229947861464427e+02 1.8075001035993090e+00 0 0 0
51 1 1.0192595604722792e+01 -1.1371720386266102e+02 1.8075001009751048e+00 0 0 0
52 1 1.2673273001046024e+01 -1.1052663954385383e+02 1.0695687135964249e-07 0 0 0
55 1 1.0901101891581515e+01 -1.1017248711854826e+02 1.8075001075375947e+00 0 0 0
23 1 1.4091011372722546e+01 -1.1265324402019932e+02 1.0329013733212378e-07 0 0 0
24 1 1.5863136081214369e+01 -1.1300705301267983e+02 1.8075001034189333e+00 0 0 0
27 1 1.4445503945143873e+01 -1.1088074262899272e+02 1.8075001067642271e+00 0 0 0
153 1 1.7635919236013429e+01 -1.1336170005923951e+02 1.0354091628528295e-07 0 0 0
159 1 1.7990773312335374e+01 -1.1159014584623003e+02 1.8075001067200884e+00 0 0 0
174 1 1.6218021345921059e+01 -1.1123521723363162e+02 1.0666896121946934e-07 0 0 0
128 1 4.1657481141051456e+00 -1.0698194003712435e+02 1.1324599968887128e-07 0 0 0
130 1 3.8112225814318776e+00 -1.0875419085124487e+02 1.8075001108138242e+00 0 0 0
160 1 2.0389173256161985e+00 -1.0839991786708134e+02 1.1137729361010429e-07 0 0 0
161 1 6.2099306534927823e-01 -1.0627314826803955e+02 1.1506540564809598e-07 0 0 0
162 1 2.3933424683363231e+00 -1.0662751654079317e+02 1.8075001141731952e+00 0 0 0
163 1 2.6662055663356410e-01 -1.0804558150819713e+02 1.8075001121129390e+00 0 0 0
90 1 9.1287587296593919e+00 -1.0981800020518870e+02 1.0814854611851388e-07 0 0 0
91 1 7.7107053690332306e+00 -1.0769107650707504e+02 1.1189132376188127e-07 0 0 0
93 1 7.3562226306839120e+00 -1.0946327457909221e+02 1.8075001091191691e+00 0 0 0
127 1 5.5836585474273459e+00 -1.0910861297494439e+02 1.0987494025727074e-07 0 0 0
129 1 5.9382249890411316e+00 -1.0733648066868494e+02 1.8075001125881576e+00 0 0 0
53 1 1.1255395336037930e+01 -1.0839991786518267e+02 1.1082007711493702e-07 0 0 0
54 1 1.3027700584908029e+01 -1.0875419085097670e+02 1.8075001103932140e+00 0 0 0
56 1 1.3382226121422924e+01 -1.0698194003204880e+02 1.1408126932010987e-07 0 0 0
59 1 1.1609820480902746e+01 -1.0662751653699537e+02 1.8075001146660086e+00 0 0 0
92 1 9.4830985689312470e+00 -1.0804558150627692e+02 1.8075001114230014e+00 0 0 0
94 1 9.8374710769110951e+00 -1.0627314826878394e+02 1.1499802710090989e-07 0 0 0
26 1 1.4800136543003171e+01 -1.0910861297733403e+02 1.0992081023175615e-07 0 0 0
29 1 1.5154702988423669e+01 -1.0733648066545622e+02 1.8075001134765931e+00 0 0 0
157 1 1.8345236719628389e+01 -1.0981800020781374e+02 1.0948892326112514e-07 0 0 0
175 1 1.6572700620720781e+01 -1.0946327458288476e+02 1.8075001097389538e+00 0 0 0
176 1 1.6927183360173419e+01 -1.0769107650671181e+02 1.1269722755002931e-07 0 0 0
134 1 4.5202579296185821e+00 -1.0520971070293770e+02 1.8075001165423292e+00 0 0 0
164 1 2.7478227315798138e+00 -1.0485521941008069e+02 1.1753321649266013e-07 0 0 0
165 1 1.3298843595722618e+00 -1.0272847326000395e+02 1.2331727594627750e-07 0 0 0
166 1 3.1023019059820496e+00 -1.0308294439828826e+02 1.8075001218930296e+00 0 0 0
167 1 9.7542368967734061e-01 -1.0450078438639838e+02 1.8075001188819719e+00 0 0 0
95 1 8.4195251868136651e+00 -1.0414636740735787e+02 1.1983729741871230e-07 0 0 0
97 1 8.0651124420039260e+00 -1.0591873391830714e+02 1.8075001155340840e+00 0 0 0
101 1 8.7739627980979300e+00 -1.0237402765851434e+02 1.8075001252182601e+00 0 0 0
131 1 6.2927030430175419e+00 -1.0556423842949724e+02 1.1582169578971957e-07 0 0 0
132 1 4.8747274655914801e+00 -1.0343743771244384e+02 1.2077952860067853e-07 0 0 0
133 1 6.6471390508664445e+00 -1.0379192150471815e+02 1.8075001201985046e+00 0 0 0
57 1 1.1964300742259466e+01 -1.0485521940487159e+02 1.1916171116510554e-07 0 0 0
58 1 1.3736735937879018e+01 -1.0520971069290295e+02 1.8075001184170552e+00 0 0 0
63 1 1.2318779911602055e+01 -1.0308294439200078e+02 1.8075001243698674e+00 0 0 0
96 1 1.0191901697616972e+01 -1.0450078438915411e+02 1.8075001195398424e+00 0 0 0
98 1 1.0546362361791868e+01 -1.0272847326391100e+02 1.2495288936875681e-07 0 0 0
28 1 1.5509181045085528e+01 -1.0556423841954796e+02 1.1745189665290923e-07 0 0 0
30 1 1.5863617053953973e+01 -1.0379192148959321e+02 1.8075001219616089e+00 0 0 0
60 1 1.4091205471362905e+01 -1.0343743769899416e+02 1.2335732080259731e-07 0 0 0
177 1 1.7281590435833131e+01 -1.0591873391216474e+02 1.8075001162512441e+00 0 0 0
178 1 1.7636003184078493e+01 -1.0414636739641668e+02 1.2042670993750448e-07 0 0 0
180 1 1.7990440798660106e+01 -1.0237402764550399e+02 1.8075001252135314e+00 0 0 0
141 1 2.6639437793541809e-01 -9.8829407905333269e+01 1.8075001358756968e+00 0 0 0
168 1 3.4567635368043237e+00 -1.0131065354919396e+02 1.2706698626629986e-07 0 0 0
169 1 2.0388047000072418e+00 -9.9183876212637529e+01 1.3415978283859431e-07 0 0 0
170 1 3.8112132250414974e+00 -9.9538345217250168e+01 1.8075001329014668e+00 0 0 0
171 1 1.6843480119836372e+00 -1.0095617708734682e+02 1.8075001285892685e+00 0 0 0
99 1 9.1284163832053107e+00 -1.0060171297123391e+02 1.3121287301132156e-07 0 0 0
135 1 7.0015718708556314e+00 -1.0201958584620466e+02 1.2550624983731495e-07 0 0 0
136 1 5.5836162108312566e+00 -9.9892806569249586e+01 1.3202481286000989e-07 0 0 0
137 1 7.3560148753591381e+00 -1.0024725952083810e+02 1.8075001316006112e+00 0 0 0
138 1 5.2291740843382106e+00 -1.0166512826444068e+02 1.8075001260819159e+00 0 0 0
61 1 1.2673241535926332e+01 -1.0131065354182883e+02 1.3000342624636119e-07 0 0 0
67 1 1.3027691218629441e+01 -9.9538345209020633e+01 1.8075001357187606e+00 0 0 0
100 1 1.0900826008791853e+01 -1.0095617709000327e+02 1.8075001307944527e+00 0 0 0
102 1 1.1255282692762165e+01 -9.9183876212387261e+01 1.3667639242598284e-07 0 0 0
104 1 9.4828723735344820e+00 -9.8829407912416400e+01 1.8075001372836317e+00 0 0 0
31 1 1.6572492876118037e+01 -1.0024725950504521e+02 1.8075001324368942e+00 0 0 0
62 1 1.4445652085533219e+01 -1.0166512824922536e+02 1.8075001288410319e+00 0 0 0
64 1 1.4800094207439804e+01 -9.9892806554715079e+01 1.3421623057396914e-07 0 0 0
69 1 1.8344894386369504e+01 -1.0060171295959759e+02 1.3042683955077905e-07 0 0 0
179 1 1.6218049873272619e+01 -1.0201958582877101e+02 1.2704996166235105e-07 0 0 0
172 1 4.1656599886641272e+00 -9.7766030044786334e+01 1.3876415705382783e-07 0 0 0
256 1 2.7477035016098950e+00 -9.5639255068829769e+01 1.4499065770223751e-07 0 0 0
257 1 4.5201077011854371e+00 -9.5993715215606528e+01 1.8075001442508880e+00 0 0 0
292 1 6.2084774489953787e-01 -9.7057101873010524e+01 1.4104833478967294e-07 0 0 0
294 1 9.7529824779518981e-01 -9.5284792427162316e+01 1.8075001459051117e+00 0 0 0
362 1 2.3932552779928740e+00 -9.7411567602314548e+01 1.8075001398033388e+00 0 0 0
139 1 7.7104652463523626e+00 -9.8474945524296857e+01 1.3762057227140190e-07 0 0 0
140 1 5.9380621148205011e+00 -9.8120487799081602e+01 1.8075001381124811e+00 0 0 0
220 1 6.2925120114328452e+00 -9.6348174843413460e+01 1.4368812140119758e-07 0 0 0
221 1 8.0649181331180646e+00 -9.6702637057047866e+01 1.8075001432929485e+00 0 0 0
222 1 8.4193699334580696e+00 -9.4930328418662228e+01 1.4805572901011033e-07 0 0 0
65 1 1.3382137979843177e+01 -9.7766030035867445e+01 1.4094099753947376e-07 0 0 0
184 1 1.3736585692947914e+01 -9.5993715207514185e+01 1.8075001455651443e+00 0 0 0
190 1 9.8373257394711100e+00 -9.7057101874341910e+01 1.4278395266131838e-07 0 0 0
191 1 1.1964181492874031e+01 -9.5639255062225132e+01 1.4654758517806954e-07 0 0 0
194 1 1.0191776241436818e+01 -9.5284792423712659e+01 1.8075001474007950e+00 0 0 0
361 1 1.1609733268933349e+01 -9.7411567598406350e+01 1.8075001421218913e+00 0 0 0
2 1 1.6926943246238366e+01 -9.8474945512957873e+01 1.3769653772754964e-07 0 0 0
66 1 1.5154540108890922e+01 -9.8120487787207409e+01 1.8075001394628087e+00 0 0 0
181 1 1.5508990006424540e+01 -9.6348174835481345e+01 1.4408218040884435e-07 0 0 0
293 1 1.7635847936035013e+01 -9.4930328418636634e+01 1.4698907069288225e-07 0 0 0
295 1 1.7281396133563952e+01 -9.6702637051564992e+01 1.8075001425925152e+00 0 0 0
259 1 3.4566027273217221e+00 -9.2094630539172385e+01 1.5383857343564955e-07 0 0 0
261 1 3.1021525538714911e+00 -9.3866942181769190e+01 1.8075001496668481e+00 0 0 0
296 1 1.3297477953736172e+00 -9.3512480768085808e+01 1.5021643529067319e-07 0 0 0
298 1 1.6841978672579634e+00 -9.1740169029568364e+01 1.8075001543974234e+00 0 0 0
223 1 7.0014145987031888e+00 -9.2803555221320366e+01 1.5263866925963043e-07 0 0 0
224 1 8.7738206433456636e+00 -9.3158018220264807e+01 1.8075001519664473e+00 0 0 0
225 1 6.6469635205408473e+00 -9.4575864730178338e+01 1.8075001486066742e+00 0 0 0
226 1 9.1282704748691312e+00 -9.1385707242658412e+01 1.5521616791858150e-07 0 0 0
229 1 7.3558647441909999e+00 -9.1031245043684351e+01 1.8075001563327748e+00 0 0 0
258 1 4.8745576094442811e+00 -9.4221402761057931e+01 1.4904832346118724e-07 0 0 0
260 1 5.2290083542094887e+00 -9.2449092509541003e+01 1.8075001533890518e+00 0 0 0
192 1 1.0546225788475709e+01 -9.3512480762102228e+01 1.5115725382486289e-07 0 0 0
193 1 1.2318630546727565e+01 -9.3866942175160702e+01 1.8075001502405998e+00 0 0 0
195 1 1.2673080722780567e+01 -9.2094630535262738e+01 1.5330598701623899e-07 0 0 0
198 1 1.0900675860554779e+01 -9.1740169024686566e+01 1.8075001542650608e+00 0 0 0
182 1 1.4091035604367866e+01 -9.4221402755311388e+01 1.4917594581831395e-07 0 0 0
183 1 1.5863441518765667e+01 -9.4575864726893428e+01 1.8075001481029811e+00 0 0 0
186 1 1.4445486352788340e+01 -9.2449092507850864e+01 1.8075001524835519e+00 0 0 0
297 1 1.8344748481589431e+01 -9.1385707247606064e+01 1.5467978053962383e-07 0 0 0
299 1 1.7990298648630681e+01 -9.3158018224030258e+01 1.8075001509538597e+00 0 0 0
329 1 1.6217892600926422e+01 -9.2803555222373589e+01 1.5160205757425160e-07 0 0 0
330 1 1.6572342749256460e+01 -9.1031245047684877e+01 1.8075001552555034e+00 0 0 0
263 1 4.1655036134994035e+00 -8.8550009220465981e+01 1.6198775520948061e-07 0 0 0
265 1 3.8110531522426521e+00 -9.0322320053775712e+01 1.8075001579601953e+00 0 0 0
300 1 2.0386472593085898e+00 -8.9967858046818364e+01 1.5834355338029127e-07 0 0 0
301 1 6.2069246354897389e-01 -8.7841085151608269e+01 1.6325614371481834e-07 0 0 0
302 1 2.3930979486094235e+00 -8.8195547147396667e+01 1.8075001628073728e+00 0 0 0
303 1 2.6624191016186116e-01 -8.9613396237263188e+01 1.8075001587869675e+00 0 0 0
227 1 7.7103148628920497e+00 -8.9258934318588146e+01 1.5981140721876841e-07 0 0 0
233 1 8.0647654004041573e+00 -8.7486623185117594e+01 1.8075001636648735e+00 0 0 0
262 1 5.5834589098009744e+00 -9.0676782379876585e+01 1.5719315182849414e-07 0 0 0
264 1 5.9379094393524641e+00 -8.8904471838738118e+01 1.8075001610195003e+00 0 0 0
196 1 1.1255125254012055e+01 -8.9967858044911281e+01 1.5733646163695880e-07 0 0 0
197 1 1.3027531150142311e+01 -9.0322320054280041e+01 1.8075001564415982e+00 0 0 0
199 1 1.3381981612854943e+01 -8.8550009225312181e+01 1.6001273817067840e-07 0 0 0
202 1 1.1609575945038165e+01 -8.8195547149666581e+01 1.8075001609627510e+00 0 0 0
228 1 9.4827199036675403e+00 -8.9613396233402909e+01 1.8075001585803008e+00 0 0 0
230 1 9.8371704595393155e+00 -8.7841085150286631e+01 1.6218126441813752e-07 0 0 0
185 1 1.4799936911449116e+01 -9.0676782382262573e+01 1.5563052935263499e-07 0 0 0
188 1 1.5154387441910767e+01 -8.8904471844659270e+01 1.8075001595557978e+00 0 0 0
331 1 1.6926792868447400e+01 -8.9258934324066331e+01 1.5908694139810109e-07 0 0 0
332 1 1.7281243403951091e+01 -8.7486623189986148e+01 1.8075001637103234e+00 0 0 0
269 1 4.5199546674346252e+00 -8.6777699171293108e+01 1.8075001663871664e+00 0 0 0
304 1 2.7475486775928344e+00 -8.6423236834300425e+01 1.6737357322327284e-07 0 0 0
305 1 1.3295949773305227e+00 -8.4296464295656392e+01 1.7306023103458301e-07 0 0 0
306 1 3.1020004241241788e+00 -8.4650926624699338e+01 1.8075001721024218e+00 0 0 0
307 1 9.7514337935182061e-01 -8.6068774534149199e+01 1.8075001682142207e+00 0 0 0
231 1 8.4192163572480414e+00 -8.5714312454293449e+01 1.6793098467360323e-07 0 0 0
237 1 8.7736670934814001e+00 -8.3942002160653146e+01 1.8075001725653357e+00 0 0 0
266 1 6.2923603686260483e+00 -8.7132161296488079e+01 1.6509485867288731e-07 0 0 0
267 1 4.8744057244266239e+00 -8.5005388963105389e+01 1.7094553905749876e-07 0 0 0
268 1 6.6468109247902278e+00 -8.5359850679541708e+01 1.8075001694379556e+00 0 0 0
270 1 7.0012621687419880e+00 -8.3587540351931864e+01 1.7392627116308290e-07 0 0 0
200 1 1.1964026675764140e+01 -8.6423236839211526e+01 1.6527737223270833e-07 0 0 0
201 1 1.3736432666862948e+01 -8.6777699178608898e+01 1.8075001645496729e+00 0 0 0
206 1 1.2318478423124651e+01 -8.4650926629895181e+01 1.8075001703475684e+00 0 0 0
232 1 1.0191621378679670e+01 -8.6068774535017397e+01 1.8075001664990973e+00 0 0 0
234 1 1.0546072979737389e+01 -8.4296464297125411e+01 1.7125345497248645e-07 0 0 0
187 1 1.5508838369532096e+01 -8.7132161303578982e+01 1.6388033818870440e-07 0 0 0
189 1 1.5863288922150341e+01 -8.5359850686191308e+01 1.8075001691347146e+00 0 0 0
203 1 1.4090883722065065e+01 -8.5005388970460572e+01 1.6949592307469175e-07 0 0 0
333 1 1.7635694356542160e+01 -8.5714312457929069e+01 1.6863091323315871e-07 0 0 0
334 1 1.6217740161995412e+01 -8.3587540356629631e+01 1.7435543231414385e-07 0 0 0
335 1 1.7990145088569449e+01 -8.3942002163282524e+01 1.8075001739140639e+00 0 0 0
308 1 3.4564523382324874e+00 -8.2878616373290086e+01 1.7659644591105916e-07 0 0 0
309 1 2.0384988245376223e+00 -8.0751844044716989e+01 1.8127826129088476e-07 0 0 0
310 1 3.8109038163699456e+00 -8.1106306108619577e+01 1.8075001802249344e+00 0 0 0
311 1 1.6840468387284460e+00 -8.2524154325006307e+01 1.8075001777044120e+00 0 0 0
338 1 2.6609432020288681e-01 -8.0397382101565142e+01 1.8075001821884527e+00 0 0 0
235 1 9.1281198903742524e+00 -8.2169692152234077e+01 1.7716774136644631e-07 0 0 0
271 1 5.5833093157860185e+00 -8.1460768060124323e+01 1.7917707317849363e-07 0 0 0
272 1 7.3557147914962346e+00 -8.1815229965020848e+01 1.8075001780590272e+00 0 0 0
273 1 5.2288572387271213e+00 -8.3233078220136861e+01 1.8075001752559952e+00 0 0 0
274 1 7.7101672538566115e+00 -8.0042919873701976e+01 1.8153972680678976e-07 0 0 0
277 1 5.9377624489251275e+00 -7.9688457910668205e+01 1.8075001819531529e+00 0 0 0
204 1 1.2672930336927969e+01 -8.2878616375358149e+01 1.7539530494659061e-07 0 0 0
210 1 1.3027381814478058e+01 -8.1106306105655520e+01 1.8075001802493984e+00 0 0 0
236 1 1.0900524842921392e+01 -8.2524154323823311e+01 1.8075001762800851e+00 0 0 0
238 1 1.1254976828857032e+01 -8.0751844038916801e+01 1.8066240770053810e-07 0 0 0
241 1 9.4825723284848404e+00 -8.0397382095165781e+01 1.8075001809928375e+00 0 0 0
205 1 1.4445335233817520e+01 -8.3233078224686622e+01 1.8075001749618662e+00 0 0 0
207 1 1.4799787308858363e+01 -8.1460768061048128e+01 1.7975087240884591e-07 0 0 0
209 1 1.5154240442523088e+01 -7.9688457908472742e+01 1.8075001834199595e+00 0 0 0
336 1 1.8344597882455027e+01 -8.2169692155774939e+01 1.7852792355554925e-07 0 0 0
337 1 1.6926645244584737e+01 -8.0042919877170434e+01 1.8290426062606002e-07 0 0 0
339 1 1.6572192782062253e+01 -8.1815229968419771e+01 1.8075001792592660e+00 0 0 0
312 1 4.1653569472383127e+00 -7.9333995846277091e+01 1.8269646195889777e-07 0 0 0
313 1 2.7474055106044171e+00 -7.7207224031114208e+01 1.8369539001028556e-07 0 0 0
314 1 4.5198104707633533e+00 -7.7561686424446108e+01 1.8075001833690330e+00 0 0 0
315 1 2.3929515880417060e+00 -7.8979533922365249e+01 1.8075001833497779e+00 0 0 0
340 1 6.2054625138002895e-01 -7.8625071679529327e+01 1.8418087721627785e-07 0 0 0
342 1 9.7500010242068968e-01 -7.6852761461473946e+01 1.8075001840609106e+00 0 0 0
275 1 6.2922152422353257e+00 -7.7916148167708357e+01 1.8338689011798692e-07 0 0 0
276 1 8.0646199853040148e+00 -7.8270609872009373e+01 1.8075001833883702e+00 0 0 0
278 1 8.4190724797681487e+00 -7.6498299418715106e+01 1.8374106058871575e-07 0 0 0
281 1 6.6466678487250084e+00 -7.6143837879769151e+01 1.8075001827737991e+00 0 0 0
208 1 1.3381834945596770e+01 -7.9333995838342474e+01 1.8379787158906424e-07 0 0 0
214 1 1.3736288471242252e+01 -7.7561686413726292e+01 1.8075001854378754e+00 0 0 0
239 1 9.8370242574361821e+00 -7.8625071669410062e+01 1.8372344712247468e-07 0 0 0
240 1 1.1609429591587585e+01 -7.8979533911119177e+01 1.8075001837954658e+00 0 0 0
242 1 1.1963883513457352e+01 -7.7207224016587389e+01 1.8522318656621906e-07 0 0 0
245 1 1.0191478104796188e+01 -7.6852761448487229e+01 1.8075001845022352e+00 0 0 0
211 1 1.5508693239370782e+01 -7.7916148164608941e+01 1.8536700618909663e-07 0 0 0
213 1 1.5863145852039052e+01 -7.6143837877597605e+01 1.8075001848559171e+00 0 0 0
341 1 1.7635550479787028e+01 -7.6498299425352798e+01 1.8452796402002036e-07 0 0 0
343 1 1.7281097979444791e+01 -7.8270609876820856e+01 1.8075001848352339e+00 0 0 0
317 1 3.4563129903298635e+00 -7.3662604761353762e+01 1.7779487437863395e-07 0 0 0
319 1 3.1018595549771870e+00 -7.5434914373077945e+01 1.8075001817724183e+00 0 0 0
344 1 1.3294537860183198e+00 -7.5080451906398920e+01 1.8165851578544334e-07 0 0 0
346 1 1.6839085278524157e+00 -7.3308142213542396e+01 1.8075001769805572e+00 0 0 0
279 1 7.0011220039141886e+00 -7.4371526835510494e+01 1.8027870352099740e-07 0 0 0
280 1 8.7735262136407819e+00 -7.4725988935883436e+01 1.8075001817139158e+00 0 0 0
282 1 9.1279817854249981e+00 -7.2953679105847371e+01 1.7751815706290586e-07 0 0 0
285 1 7.3555761744827368e+00 -7.2599216785503742e+01 1.8075001754201945e+00 0 0 0
316 1 4.8742643475915504e+00 -7.5789376412700676e+01 1.8217007236032146e-07 0 0 0
318 1 5.2287174896639241e+00 -7.4017065785863551e+01 1.8075001787956995e+00 0 0 0
320 1 5.5831711209722910e+00 -7.2244755250070654e+01 1.7345402181234704e-07 0 0 0
243 1 1.0545931784470845e+01 -7.5080451893405055e+01 1.8315302474647410e-07 0 0 0
244 1 1.2318337558043146e+01 -7.5434914358895995e+01 1.8075001842088363e+00 0 0 0
246 1 1.2672790994225350e+01 -7.3662604752131983e+01 1.8072617402609126e-07 0 0 0
249 1 1.0900386523477078e+01 -7.3308142204731254e+01 1.8075001792504144e+00 0 0 0
212 1 1.4090742352183909e+01 -7.5789376402717039e+01 1.8487891217944252e-07 0 0 0
215 1 1.4799649133244275e+01 -7.2244755249455011e+01 1.7549223940704906e-07 0 0 0
216 1 1.4445195498961205e+01 -7.4017065779560511e+01 1.8075001814781162e+00 0 0 0
345 1 1.8344459797179614e+01 -7.2953679111407638e+01 1.7652889061636756e-07 0 0 0
347 1 1.7990004220285552e+01 -7.4725988943168005e+01 1.8075001817773519e+00 0 0 0
356 1 1.6217600014036609e+01 -7.4371526835555684e+01 1.8186314143520121e-07 0 0 0
357 1 1.6572054189631139e+01 -7.2599216787421227e+01 1.8075001760174432e+00 0 0 0
321 1 4.1652219577019016e+00 -7.0117982620450476e+01 1.6339548558619299e-07 0 0 0
323 1 3.8107673660090375e+00 -7.1890293638313864e+01 1.8075001715033800e+00 0 0 0
327 1 4.5196757541974328e+00 -6.8345672472359169e+01 1.8075001531294146e+00 0 0 0
348 1 2.0383632885525520e+00 -7.1535831634066611e+01 1.7009778341403603e-07 0 0 0
349 1 6.2041230733869535e-01 -6.9409059076589102e+01 1.5918845397422388e-07 0 0 0
350 1 2.3928168900277975e+00 -6.9763521267559000e+01 1.8075001609636456e+00 0 0 0
351 1 2.6595818548648342e-01 -7.1181369392756636e+01 1.8075001688078285e+00 0 0 0
283 1 7.7100310366413307e+00 -7.0826906767367447e+01 1.6835173699547568e-07 0 0 0
289 1 8.0644861069507581e+00 -6.9054596274004680e+01 1.8075001590333282e+00 0 0 0
322 1 5.9376267435562236e+00 -7.0472444356932343e+01 1.8075001656877465e+00 0 0 0
324 1 6.2920810631678288e+00 -6.8700133952800854e+01 1.5620029047980211e-07 0 0 0
247 1 1.1254841282820912e+01 -7.1535831632958718e+01 1.7291590115320332e-07 0 0 0
248 1 1.3027245370600832e+01 -7.1890293637082607e+01 1.8075001743486747e+00 0 0 0
250 1 1.3381699961703106e+01 -7.0117982627610388e+01 1.6546747128032280e-07 0 0 0
252 1 1.3736153756131884e+01 -6.8345672486014720e+01 1.8075001540922073e+00 0 0 0
253 1 1.1609294884502065e+01 -6.9763521274965825e+01 1.8075001637115724e+00 0 0 0
284 1 9.4824361719909032e+00 -7.1181369391547634e+01 1.8075001707288756e+00 0 0 0
286 1 9.8368902956728022e+00 -6.9409059080815098e+01 1.6166158633978966e-07 0 0 0
217 1 1.5508559071745887e+01 -6.8700133961533183e+01 1.5578312639874525e-07 0 0 0
218 1 1.5154104755731868e+01 -7.0472444361800967e+01 1.8075001666782164e+00 0 0 0
358 1 1.6926509053005450e+01 -7.0826906769913236e+01 1.6789054813060034e-07 0 0 0
359 1 1.7280964119805606e+01 -6.9054596275892663e+01 1.8075001572078084e+00 0 0 0
352 1 2.7472711824933862e+00 -6.7991210868959712e+01 1.5036618972175120e-07 0 0 0
353 1 1.3293204634296558e+00 -6.5864438224500773e+01 1.3493189143787276e-07 0 0 0
354 1 3.1017252564800133e+00 -6.6218899779309993e+01 1.8075001381173879e+00 0 0 0
355 1 9.7486685648528659e-01 -6.7636748629265085e+01 1.8075001474939714e+00 0 0 0
287 1 8.4189397753268924e+00 -6.7282286107847924e+01 1.4781465473845401e-07 0 0 0
291 1 8.7733933004473119e+00 -6.5509975910430256e+01 1.8075001348827044e+00 0 0 0
325 1 4.8741296436580397e+00 -6.6573361470161387e+01 1.4161878292284769e-07 0 0 0
326 1 6.6465343497514464e+00 -6.6927823628283292e+01 1.8075001448042680e+00 0 0 0
413 1 5.2285837876228909e+00 -6.4801050514159641e+01 1.8075001289342665e+00 0 0 0
543 1 7.0009884672301883e+00 -6.5155512945862284e+01 1.3215827143753245e-07 0 0 0
251 1 1.1963749178100874e+01 -6.7991210882934894e+01 1.5241780948471728e-07 0 0 0
255 1 1.2318203253453341e+01 -6.6218899796001025e+01 1.8075001391974224e+00 0 0 0
288 1 1.0191344849412641e+01 -6.7636748638207521e+01 1.8075001502591215e+00 0 0 0
290 1 1.0545798461907816e+01 -6.5864438235606116e+01 1.3733333670273851e-07 0 0 0
219 1 1.5863012352164615e+01 -6.6927823638167482e+01 1.8075001428228716e+00 0 0 0
254 1 1.4090607642487267e+01 -6.6573361486284341e+01 1.4108322510253402e-07 0 0 0
328 1 1.7989871299168971e+01 -6.5509975909070633e+01 1.8075001317700077e+00 0 0 0