(written by ASE)

128 atoms
1 atom types

0.0      11.421298250160394  xlo xhi
0.0      11.421298250160394  ylo yhi
0.0      11.421298250160394  zlo zhi

Atoms # atomic

     1   1                       0                       0                       0
     2   1      1.4276622812700488      1.4276622812700488      1.4276622812700488
     3   1                       0                       0      2.8553245625400976
     4   1      1.4276622812700488      1.4276622812700488      4.2829868438101473
     5   1                       0                       0      5.7106491250801952
     6   1      1.4276622812700488      1.4276622812700488       7.138311406350244
     7   1                       0                       0      8.5659736876202945
     8   1      1.4276622812700488      1.4276622812700488      9.9936359688903433
     9   1                       0      2.8553245625400976                       0
    10   1      1.4276622812700488      4.2829868438101473      1.4276622812700488
    11   1                       0      2.8553245625400976      2.8553245625400976
    12   1      1.4276622812700488      4.2829868438101473      4.2829868438101473
    13   1                       0      2.8553245625400976      5.7106491250801952
    14   1      1.4276622812700488      4.2829868438101473       7.138311406350244
    15   1                       0      2.8553245625400976      8.5659736876202945
    16   1      1.4276622812700488      4.2829868438101473      9.9936359688903433
    17   1                       0      5.7106491250801952                       0
    18   1      1.4276622812700488       7.138311406350244      1.4276622812700488
    19   1                       0      5.7106491250801952      2.8553245625400976
    20   1      1.4276622812700488       7.138311406350244      4.2829868438101473
    21   1                       0      5.7106491250801952      5.7106491250801952
    22   1      1.4276622812700488       7.138311406350244       7.138311406350244
    23   1                       0      5.7106491250801952      8.5659736876202945
    24   1      1.4276622812700488       7.138311406350244      9.9936359688903433
    25   1                       0      8.5659736876202945                       0
    26   1      1.4276622812700488      9.9936359688903433      1.4276622812700488
    27   1                       0      8.5659736876202945      2.8553245625400976
    28   1      1.4276622812700488      9.9936359688903433      4.2829868438101473
    29   1                       0      8.5659736876202945      5.7106491250801952
    30   1      1.4276622812700488      9.9936359688903433       7.138311406350244
    31   1                       0      8.5659736876202945      8.5659736876202945
    32   1      1.4276622812700488      9.9936359688903433      9.9936359688903433
    33   1      2.8553245625400976                       0                       0
    34   1      4.2829868438101473      1.4276622812700488      1.4276622812700488
    35   1      2.8553245625400976                       0      2.8553245625400976
    36   1      4.2829868438101473      1.4276622812700488      4.2829868438101473
    37   1      2.8553245625400976                       0      5.7106491250801952
    38   1      4.2829868438101473      1.4276622812700488       7.138311406350244
    39   1      2.8553245625400976                       0      8.5659736876202945
    40   1      4.2829868438101473      1.4276622812700488      9.9936359688903433
    41   1      2.8553245625400976      2.8553245625400976                       0
    42   1      4.2829868438101473      4.2829868438101473      1.4276622812700488
    43   1      2.8553245625400976      2.8553245625400976      2.8553245625400976
    44   1      4.2829868438101473      4.2829868438101473      4.2829868438101473
    45   1      2.8553245625400976      2.8553245625400976      5.7106491250801952
    46   1      4.2829868438101473      4.2829868438101473       7.138311406350244
    47   1      2.8553245625400976      2.8553245625400976      8.5659736876202945
    48   1      4.2829868438101473      4.2829868438101473      9.9936359688903433
    49   1      2.8553245625400976      5.7106491250801952                       0
    50   1      4.2829868438101473       7.138311406350244      1.4276622812700488
    51   1      2.8553245625400976      5.7106491250801952      2.8553245625400976
    52   1      4.2829868438101473       7.138311406350244      4.2829868438101473
    53   1      2.8553245625400976      5.7106491250801952      5.7106491250801952
    54   1      4.2829868438101473       7.138311406350244       7.138311406350244
    55   1      2.8553245625400976      5.7106491250801952      8.5659736876202945
    56   1      4.2829868438101473       7.138311406350244      9.9936359688903433
    57   1      2.8553245625400976      8.5659736876202945                       0
    58   1      4.2829868438101473      9.9936359688903433      1.4276622812700488
    59   1      2.8553245625400976      8.5659736876202945      2.8553245625400976
    60   1      4.2829868438101473      9.9936359688903433      4.2829868438101473
    61   1      2.8553245625400976      8.5659736876202945      5.7106491250801952
    62   1      4.2829868438101473      9.9936359688903433       7.138311406350244
    63   1      2.8553245625400976      8.5659736876202945      8.5659736876202945
    64   1      4.2829868438101473      9.9936359688903433      9.9936359688903433
    65   1      5.7106491250801952                       0                       0
    66   1       7.138311406350244      1.4276622812700488      1.4276622812700488
    67   1      5.7106491250801952                       0      2.8553245625400976
    68   1       7.138311406350244      1.4276622812700488      4.2829868438101473
    69   1      5.7106491250801952                       0      5.7106491250801952
    70   1       7.138311406350244      1.4276622812700488       7.138311406350244
    71   1      5.7106491250801952                       0      8.5659736876202945
    72   1       7.138311406350244      1.4276622812700488      9.9936359688903433
    73   1      5.7106491250801952      2.8553245625400976                       0
    74   1       7.138311406350244      4.2829868438101473      1.4276622812700488
    75   1      5.7106491250801952      2.8553245625400976      2.8553245625400976
    76   1       7.138311406350244      4.2829868438101473      4.2829868438101473
    77   1      5.7106491250801952      2.8553245625400976      5.7106491250801952
    78   1       7.138311406350244      4.2829868438101473       7.138311406350244
    79   1      5.7106491250801952      2.8553245625400976      8.5659736876202945
    80   1       7.138311406350244      4.2829868438101473      9.9936359688903433
    81   1      5.7106491250801952      5.7106491250801952                       0
    82   1       7.138311406350244       7.138311406350244      1.4276622812700488
    83   1      5.7106491250801952      5.7106491250801952      2.8553245625400976
    84   1       7.138311406350244       7.138311406350244      4.2829868438101473
    85   1      5.7106491250801952      5.7106491250801952      5.7106491250801952
    86   1       7.138311406350244       7.138311406350244       7.138311406350244
    87   1      5.7106491250801952      5.7106491250801952      8.5659736876202945
    88   1       7.138311406350244       7.138311406350244      9.9936359688903433
    89   1      5.7106491250801952      8.5659736876202945                       0
    90   1       7.138311406350244      9.9936359688903433      1.4276622812700488
    91   1      5.7106491250801952      8.5659736876202945      2.8553245625400976
    92   1       7.138311406350244      9.9936359688903433      4.2829868438101473
    93   1      5.7106491250801952      8.5659736876202945      5.7106491250801952
    94   1       7.138311406350244      9.9936359688903433       7.138311406350244
    95   1      5.7106491250801952      8.5659736876202945      8.5659736876202945
    96   1       7.138311406350244      9.9936359688903433      9.9936359688903433
    97   1      8.5659736876202945                       0                       0
    98   1      9.9936359688903433      1.4276622812700488      1.4276622812700488
    99   1      8.5659736876202945                       0      2.8553245625400976
   100   1      9.9936359688903433      1.4276622812700488      4.2829868438101473
   101   1      8.5659736876202945                       0      5.7106491250801952
   102   1      9.9936359688903433      1.4276622812700488       7.138311406350244
   103   1      8.5659736876202945                       0      8.5659736876202945
   104   1      9.9936359688903433      1.4276622812700488      9.9936359688903433
   105   1      8.5659736876202945      2.8553245625400976                       0
   106   1      9.9936359688903433      4.2829868438101473      1.4276622812700488
   107   1      8.5659736876202945      2.8553245625400976      2.8553245625400976
   108   1      9.9936359688903433      4.2829868438101473      4.2829868438101473
   109   1      8.5659736876202945      2.8553245625400976      5.7106491250801952
   110   1      9.9936359688903433      4.2829868438101473       7.138311406350244
   111   1      8.5659736876202945      2.8553245625400976      8.5659736876202945
   112   1      9.9936359688903433      4.2829868438101473      9.9936359688903433
   113   1      8.5659736876202945      5.7106491250801952                       0
   114   1      9.9936359688903433       7.138311406350244      1.4276622812700488
   115   1      8.5659736876202945      5.7106491250801952      2.8553245625400976
   116   1      9.9936359688903433       7.138311406350244      4.2829868438101473
   117   1      8.5659736876202945      5.7106491250801952      5.7106491250801952
   118   1      9.9936359688903433       7.138311406350244       7.138311406350244
   119   1      8.5659736876202945      5.7106491250801952      8.5659736876202945
   120   1      9.9936359688903433       7.138311406350244      9.9936359688903433
   121   1      8.5659736876202945      8.5659736876202945                       0
   122   1      9.9936359688903433      9.9936359688903433      1.4276622812700488
   123   1      8.5659736876202945      8.5659736876202945      2.8553245625400976
   124   1      9.9936359688903433      9.9936359688903433      4.2829868438101473
   125   1      8.5659736876202945      8.5659736876202945      5.7106491250801952
   126   1      9.9936359688903433      9.9936359688903433       7.138311406350244
   127   1      8.5659736876202945      8.5659736876202945      8.5659736876202945
   128   1      9.9936359688903433      9.9936359688903433      9.9936359688903433
