(written by ASE)

128 atoms
1 atom types

0.0      11.441285504296404  xlo xhi
0.0      11.441285504296404  ylo yhi
0.0      11.441285504296404  zlo zhi

Atoms # atomic

     1   1                       0                       0                       0
     2   1      1.4301606880370505      1.4301606880370505      1.4301606880370505
     3   1                       0                       0      2.8603213760741011
     4   1      1.4301606880370505      1.4301606880370505      4.2904820641111518
     5   1                       0                       0      5.7206427521482013
     6   1      1.4301606880370505      1.4301606880370505      7.1508034401852525
     7   1                       0                       0      8.5809641282223037
     8   1      1.4301606880370505      1.4301606880370505      10.011124816259354
     9   1                       0      2.8603213760741011                       0
    10   1      1.4301606880370505      4.2904820641111518      1.4301606880370505
    11   1                       0      2.8603213760741011      2.8603213760741011
    12   1      1.4301606880370505      4.2904820641111518      4.2904820641111518
    13   1                       0      2.8603213760741011      5.7206427521482013
    14   1      1.4301606880370505      4.2904820641111518      7.1508034401852525
    15   1                       0      2.8603213760741011      8.5809641282223037
    16   1      1.4301606880370505      4.2904820641111518      10.011124816259354
    17   1                       0      5.7206427521482013                       0
    18   1      1.4301606880370505      7.1508034401852525      1.4301606880370505
    19   1                       0      5.7206427521482013      2.8603213760741011
    20   1      1.4301606880370505      7.1508034401852525      4.2904820641111518
    21   1                       0      5.7206427521482013      5.7206427521482013
    22   1      1.4301606880370505      7.1508034401852525      7.1508034401852525
    23   1                       0      5.7206427521482013      8.5809641282223037
    24   1      1.4301606880370505      7.1508034401852525      10.011124816259354
    25   1                       0      8.5809641282223037                       0
    26   1      1.4301606880370505      10.011124816259354      1.4301606880370505
    27   1                       0      8.5809641282223037      2.8603213760741011
    28   1      1.4301606880370505      10.011124816259354      4.2904820641111518
    29   1                       0      8.5809641282223037      5.7206427521482013
    30   1      1.4301606880370505      10.011124816259354      7.1508034401852525
    31   1                       0      8.5809641282223037      8.5809641282223037
    32   1      1.4301606880370505      10.011124816259354      10.011124816259354
    33   1      2.8603213760741011                       0                       0
    34   1      4.2904820641111518      1.4301606880370505      1.4301606880370505
    35   1      2.8603213760741011                       0      2.8603213760741011
    36   1      4.2904820641111518      1.4301606880370505      4.2904820641111518
    37   1      2.8603213760741011                       0      5.7206427521482013
    38   1      4.2904820641111518      1.4301606880370505      7.1508034401852525
    39   1      2.8603213760741011                       0      8.5809641282223037
    40   1      4.2904820641111518      1.4301606880370505      10.011124816259354
    41   1      2.8603213760741011      2.8603213760741011                       0
    42   1      4.2904820641111518      4.2904820641111518      1.4301606880370505
    43   1      2.8603213760741011      2.8603213760741011      2.8603213760741011
    44   1      4.2904820641111518      4.2904820641111518      4.2904820641111518
    45   1      2.8603213760741011      2.8603213760741011      5.7206427521482013
    46   1      4.2904820641111518      4.2904820641111518      7.1508034401852525
    47   1      2.8603213760741011      2.8603213760741011      8.5809641282223037
    48   1      4.2904820641111518      4.2904820641111518      10.011124816259354
    49   1      2.8603213760741011      5.7206427521482013                       0
    50   1      4.2904820641111518      7.1508034401852525      1.4301606880370505
    51   1      2.8603213760741011      5.7206427521482013      2.8603213760741011
    52   1      4.2904820641111518      7.1508034401852525      4.2904820641111518
    53   1      2.8603213760741011      5.7206427521482013      5.7206427521482013
    54   1      4.2904820641111518      7.1508034401852525      7.1508034401852525
    55   1      2.8603213760741011      5.7206427521482013      8.5809641282223037
    56   1      4.2904820641111518      7.1508034401852525      10.011124816259354
    57   1      2.8603213760741011      8.5809641282223037                       0
    58   1      4.2904820641111518      10.011124816259354      1.4301606880370505
    59   1      2.8603213760741011      8.5809641282223037      2.8603213760741011
    60   1      4.2904820641111518      10.011124816259354      4.2904820641111518
    61   1      2.8603213760741011      8.5809641282223037      5.7206427521482013
    62   1      4.2904820641111518      10.011124816259354      7.1508034401852525
    63   1      2.8603213760741011      8.5809641282223037      8.5809641282223037
    64   1      4.2904820641111518      10.011124816259354      10.011124816259354
    65   1      5.7206427521482013                       0                       0
    66   1      7.1508034401852525      1.4301606880370505      1.4301606880370505
    67   1      5.7206427521482013                       0      2.8603213760741011
    68   1      7.1508034401852525      1.4301606880370505      4.2904820641111518
    69   1      5.7206427521482013                       0      5.7206427521482013
    70   1      7.1508034401852525      1.4301606880370505      7.1508034401852525
    71   1      5.7206427521482013                       0      8.5809641282223037
    72   1      7.1508034401852525      1.4301606880370505      10.011124816259354
    73   1      5.7206427521482013      2.8603213760741011                       0
    74   1      7.1508034401852525      4.2904820641111518      1.4301606880370505
    75   1      5.7206427521482013      2.8603213760741011      2.8603213760741011
    76   1      7.1508034401852525      4.2904820641111518      4.2904820641111518
    77   1      5.7206427521482013      2.8603213760741011      5.7206427521482013
    78   1      7.1508034401852525      4.2904820641111518      7.1508034401852525
    79   1      5.7206427521482013      2.8603213760741011      8.5809641282223037
    80   1      7.1508034401852525      4.2904820641111518      10.011124816259354
    81   1      5.7206427521482013      5.7206427521482013                       0
    82   1      7.1508034401852525      7.1508034401852525      1.4301606880370505
    83   1      5.7206427521482013      5.7206427521482013      2.8603213760741011
    84   1      7.1508034401852525      7.1508034401852525      4.2904820641111518
    85   1      5.7206427521482013      5.7206427521482013      5.7206427521482013
    86   1      7.1508034401852525      7.1508034401852525      7.1508034401852525
    87   1      5.7206427521482013      5.7206427521482013      8.5809641282223037
    88   1      7.1508034401852525      7.1508034401852525      10.011124816259354
    89   1      5.7206427521482013      8.5809641282223037                       0
    90   1      7.1508034401852525      10.011124816259354      1.4301606880370505
    91   1      5.7206427521482013      8.5809641282223037      2.8603213760741011
    92   1      7.1508034401852525      10.011124816259354      4.2904820641111518
    93   1      5.7206427521482013      8.5809641282223037      5.7206427521482013
    94   1      7.1508034401852525      10.011124816259354      7.1508034401852525
    95   1      5.7206427521482013      8.5809641282223037      8.5809641282223037
    96   1      7.1508034401852525      10.011124816259354      10.011124816259354
    97   1      8.5809641282223037                       0                       0
    98   1      10.011124816259354      1.4301606880370505      1.4301606880370505
    99   1      8.5809641282223037                       0      2.8603213760741011
   100   1      10.011124816259354      1.4301606880370505      4.2904820641111518
   101   1      8.5809641282223037                       0      5.7206427521482013
   102   1      10.011124816259354      1.4301606880370505      7.1508034401852525
   103   1      8.5809641282223037                       0      8.5809641282223037
   104   1      10.011124816259354      1.4301606880370505      10.011124816259354
   105   1      8.5809641282223037      2.8603213760741011                       0
   106   1      10.011124816259354      4.2904820641111518      1.4301606880370505
   107   1      8.5809641282223037      2.8603213760741011      2.8603213760741011
   108   1      10.011124816259354      4.2904820641111518      4.2904820641111518
   109   1      8.5809641282223037      2.8603213760741011      5.7206427521482013
   110   1      10.011124816259354      4.2904820641111518      7.1508034401852525
   111   1      8.5809641282223037      2.8603213760741011      8.5809641282223037
   112   1      10.011124816259354      4.2904820641111518      10.011124816259354
   113   1      8.5809641282223037      5.7206427521482013                       0
   114   1      10.011124816259354      7.1508034401852525      1.4301606880370505
   115   1      8.5809641282223037      5.7206427521482013      2.8603213760741011
   116   1      10.011124816259354      7.1508034401852525      4.2904820641111518
   117   1      8.5809641282223037      5.7206427521482013      5.7206427521482013
   118   1      10.011124816259354      7.1508034401852525      7.1508034401852525
   119   1      8.5809641282223037      5.7206427521482013      8.5809641282223037
   120   1      10.011124816259354      7.1508034401852525      10.011124816259354
   121   1      8.5809641282223037      8.5809641282223037                       0
   122   1      10.011124816259354      10.011124816259354      1.4301606880370505
   123   1      8.5809641282223037      8.5809641282223037      2.8603213760741011
   124   1      10.011124816259354      10.011124816259354      4.2904820641111518
   125   1      8.5809641282223037      8.5809641282223037      5.7206427521482013
   126   1      10.011124816259354      10.011124816259354      7.1508034401852525
   127   1      8.5809641282223037      8.5809641282223037      8.5809641282223037
   128   1      10.011124816259354      10.011124816259354      10.011124816259354
