(written by ASE)

48 atoms
1 atom types

0.0      4.0496852345588978  xlo xhi
0.0      4.9598311954860979  ylo yhi
0.0      42.085564754760718  zlo zhi

Atoms # atomic

     1   1  -0.0001295899275058847     0.13754107888202496      7.5683733665428843
     2   1  -0.0001295899275058847      2.6174616364562691      7.5683733665428843
     3   1      2.0251098965049299      1.6400971403985609       8.656790242230505
     4   1      2.0251098965049299      4.1200077783104145       8.656790242230505
     5   1  2.0248426172794489e-05     0.83677808082165506      9.8715900688766745
     6   1  2.0248426172794489e-05      3.3166936785647043      9.8715900688766745
     7   1      2.0249114619284363      2.4828666973043632      11.046829464653367
     8   1      2.0249114619284363   0.0029510995613142282      11.046829464653367
     9   1 -9.3142760394854636e-05      1.6553585409870717      12.230570144510521
    10   1 -9.3142760394854636e-05      4.1352790985613153      12.230570144510521
    11   1      2.0249155116136706     0.82182914959845987      13.382367880718814
    12   1      2.0249155116136706      3.3017447473415085      13.382367880718814
    13   1      4.0496163899099091      2.4701496901191367      14.560805779416867
    14   1      4.0496163899099091      4.9500652878621851      14.560805779416867
    15   1      2.0245672386834985      1.6622031080368425      15.718579665820336
    16   1      2.0245672386834985      4.1421137459486959      15.718579665820336
    17   1      4.0496042408542063     0.84163871539323143      16.886706601153474
    18   1      4.0496042408542063      3.3215543131362804      16.886706601153474
    19   1      2.0247494745190537   0.0064279412293499821      18.062198510318698
    20   1      2.0247494745190537      2.4863385791412038      18.062198510318698
    21   1  5.2645908049265664e-05      1.6467234748757302      19.232345552760062
    22   1  5.2645908049265664e-05      4.1266390726187785      19.232345552760062
    23   1       2.024611785221079     0.85979169756871054      20.400851258175994
    24   1       2.024611785221079      3.3397072953117592      20.400851258175994
    25   1  2.0248426172794489e-05      2.3725749310103383      21.634168733314254
    26   1  2.0248426172794489e-05      4.8524905287533864      21.634168733314254
    27   1      2.0247535242042884     0.77655581044606292      22.867907064100066
    28   1      2.0247535242042884      3.2564714081891113      22.867907064100066
    29   1  0.00013768929797500253      1.6062909309701274      24.017348008682095
    30   1  0.00013768929797500253      4.0862065287131761      24.017348008682095
    31   1      2.0247251764076464      4.9342979844917352      25.201467458622037
    32   1      2.0247251764076464      2.4543823867486863      25.201467458622037
    33   1      4.0495920917985027     0.81509369883498994      26.366437976598576
    34   1      4.0495920917985027      3.2950092965780389      26.366437976598576
    35   1      2.0247454248338195      1.6305097866976863       27.52530608768566
    36   1      2.0247454248338195      4.1104253844407346       27.52530608768566
    37   1  5.2645908049265664e-05      2.4593322982817813      28.702649761700094
    38   1  5.2645908049265664e-05      4.9392429361936347      28.702649761700094
    39   1      2.0245753380539675     0.81279729699147973      29.858782311078127
    40   1      2.0245753380539675      3.2927128947345286      29.858782311078127
    41   1  4.8596222814706776e-05      1.6437574958208294       31.04719448862306
    42   1  4.8596222814706776e-05      4.1236730935638777       31.04719448862306
    43   1      2.0246441827029553      2.4834073189046713      32.223528109083375
    44   1      2.0246441827029553   0.0034867613304267265      32.223528109083375
    45   1 -2.0248426172794489e-05     0.81210788045530713      33.438622534682828
    46   1 -2.0248426172794489e-05      3.2920234781983564      33.438622534682828
    47   1       2.024656331758659      1.7872354926438514      34.525229731085993
    48   1       2.024656331758659      4.2671510903869008      34.525229731085993
