(written by ASE)

72 atoms
1 atom types

0.0      4.0496852345588978  xlo xhi
0.0      7.0142609609931217  ylo yhi
0.0      44.638482781770897  zlo zhi

Atoms # atomic

     1   1        2.02492361098414      3.5061835552668268      7.7852192280375361
     2   1  8.0993704691177958e-05      7.0133070215024267      7.7852192280375361
     3   1  7.2894334222060154e-05      2.3371938377686741       8.571615379203994
     4   1      2.0249155116136706      5.8443243182652358       8.571615379203994
     5   1   6.479496375294235e-05       4.674527960756568      9.2496292941763105
     6   1       2.024907412243202      1.1673974802600073      9.2496292941763105
     7   1      2.0249114619284363      3.5060502843085679      10.170521193964245
     8   1  7.2894334222060154e-05      7.0131807648051288      10.170521193964245
     9   1  2.4298111407353388e-05      2.3369202815911954      11.003832390534344
    10   1      2.0248669153908558      5.8440647906096785      11.003877029017126
    11   1      2.0248588160203869      1.1683163484458974         11.825983966409
    12   1  8.0993704691177937e-06      4.6754538432034192         11.825983966409
    13   1      2.0248264185385105       3.506036255786646      12.656616854012194
    14   1       4.049669035817959      7.0131667362832069      12.656616854012194
    15   1      4.0496528370770211      2.3376708075140216      13.488946003961093
    16   1      2.0248102197975726       5.844801288010582      13.488946003961093
    17   1      4.0496366383360831      4.6760430411241423      14.304669638315175
    18   1      2.0247899713713995      1.1689125606275816      14.304669638315175
    19   1      2.0247859216861648      3.5070813806698342      15.139052158472037
    20   1      4.0496285389656137 -4.9099826726951849e-05      15.139052158472037
    21   1      2.0247697229452264      5.8452572149730475      15.967988783729522
    22   1      4.0496123402246758      2.3381267344764858      15.967988783729522
    23   1      4.0496123402246758      4.6764077826941142       16.78808698939622
    24   1      2.0247697229452264      1.1692632736756317       16.78808698939622
    25   1      4.0495961414837378  0.00075754018378725713       17.63309346845514
    26   1      2.0247494745190537       3.507888020680348       17.63309346845514
    27   1      2.0247616235747574      5.8460498264616394      18.456093175502652
    28   1      4.0496082905394415      2.3389193459650786      18.456093175502652
    29   1      4.0496042408542063      4.6774879788821071      19.261996343644743
    30   1      2.0247616235747574      1.1703645126465074      19.261996343644743
    31   1      4.0496082905394415  0.00042085565765958731      20.142802885894646
    32   1      2.0247656732599921      3.5075513361542203      20.142802885894646
    33   1      2.0247575738895227      5.8456570278478237      21.029590984837306
    34   1      4.0496001911689712      2.3385265473512633      21.029590984837306
    35   1      4.0495961414837378       4.677312622358083      21.631094540321669
    36   1      2.0247535242042884      1.1701821418615215      21.631094540321669
    37   1      4.0496771351884284   0.0025602052507624892      22.741030414690407
    38   1      2.0248385675942142      3.5096906857473233      22.741030414690407
    39   1      2.0249357600398437      1.1707923825651279      23.851100204507482
    40   1  9.3142760394854636e-05      4.6779228630616885      23.851100204507482
    41   1  0.00010124213086397244      2.3387159323972098      24.461754648962106
    42   1      2.0249438594103126      5.8458464128937706      24.461754648962106
    43   1  0.00010529181609853133  0.00039279861381561479      25.340016797693448
    44   1      2.0249479090955473      3.5075232791103761      25.340016797693448
    45   1  0.00011744087180220802      4.6773757507067319      26.220823339943355
    46   1       2.024960058151251      1.1702452702101702      26.220823339943355
    47   1       2.024976256892189       5.845790298806083      27.021637721048322
    48   1   0.0001295899275058847      2.3386598183095217      27.021637721048322
    49   1  0.00014578866844412031  0.00013327095825886931      27.845083812923651
    50   1      2.0249884059478931      3.5072567371938583      27.845083812923651
    51   1      2.0249965053183616      1.1691370169783335      28.689286799292503
    52   1  0.00015388803891323811      4.6762674974748943      28.689286799292503
    53   1  0.00019033520602426817      2.3381337487374472      29.510500967028744
    54   1      2.0250329524854731       5.845264229234008      29.510500967028744
    55   1  0.00017818615032059147      7.0138190625525789       30.33506302097361
    56   1      2.0250208034297694      3.5066885820560185       30.33506302097361
    57   1  0.00018628552078970927      4.6760009555583766      31.157571704710524
    58   1      2.0250289028002384      1.1688704750618157      31.157571704710524
    59   1       2.025049151226411      5.8442401471337035      31.985838752726284
    60   1  0.00020653394696250378      2.3371096666371423      31.985838752726284
    61   1      2.0250451015411768      3.5061975837887491      32.814462908604298
    62   1  0.00020248426172794488      7.0133280642853091      32.814462908604298
    63   1      2.0250451015411768      1.1680848778341846      33.637864361996847
    64   1  0.00020248426172794488      4.6752153583307452      33.637864361996847
    65   1      2.0250370021707078      5.8440858333925609      34.469211465324548
    66   1   0.0001943848912588271      2.3369553528960005      34.469211465324548
    67   1  0.00018628552078970927       7.012500381491912      35.385639516834296
    68   1      2.0250289028002384      3.5053699009953516      35.385639516834296
    69   1  0.00019843457649338598      4.6749207593703836      36.068072641602008
    70   1      2.0250410518559421      1.1677902788738228      36.068072641602008
    71   1      2.0250410518559421      5.8438613770418089      36.850942352628714
    72   1  0.00019843457649338598      2.3367308965452489      36.850942352628714
