(written by ASE)

42 atoms
1 atom types

0.0      4.0496852345588978  xlo xhi
0.0       4.748676871444693  ylo yhi
0.0       51.54407939321316  zlo zhi

Atoms # atomic

     1   1      4.0496487873917868      4.7315911320612356      13.259559791665904
     2   1      2.0248061701123379      1.3657812010268227      13.744125682041501
     3   1      4.0496366383360831      2.5437237397267789      14.383581530993705
     4   1      2.0248102197975726      3.8918018733768558      14.861188970651218
     5   1      4.0496528370770211     0.42112216231345828      15.584507036776175
     6   1      2.0248021204271032      1.7305603122605895      16.186181075533153
     7   1      4.0496285389656137      3.0200160299326817      16.808678922364987
     8   1      2.0247899713713995       4.316281350238425      17.403291422245097
     9   1      4.0496366383360831     0.86093986546979429      18.028469561205377
    10   1      2.0247980707418689      2.1534537310470969      18.639009181617986
    11   1      4.0496447377065516       3.451666008870133      19.243724321059162
    12   1      2.0247818720009305      4.7451011177604956      19.859005996775949
    13   1      4.0496204395951452      1.2955767621593841      20.459442977627486
    14   1      2.0247899713713995       2.588945389573547        21.0874560409544
    15   1      4.0496406880213174      3.8900828523493924       21.68232626123147
    16   1      2.0247859216861648     0.42828791571246833      22.320287331881268
    17   1      4.0496487873917868      1.7300047170666304       22.89139573155807
    18   1      2.0248102197975726       3.020277207160611      23.571622947310306
    19   1      4.0496325886508489      4.3265005028657741      24.084486537272777
    20   1      2.0247656732599921     0.85243498519303695      24.854709715645559
    21   1      4.0496123402246758      2.2017002880609748       25.22928054059604
    22   1      4.0496001911689712     0.02785573852789457      26.387527548640932
    23   1      2.0247575738895227      3.3697133434227404      26.388197621673044
    24   1       4.049579942742799      2.2037564651463102      27.542991176398591
    25   1      2.0247413751485848     0.85054976047507336      27.916479575681812
    26   1      4.0495394458904528      4.3287751190871964       28.68721819484853
    27   1      2.0247292260928811      3.0217730403751162      29.197556124920737
    28   1      4.0495758930575638      1.7298670054373586      29.880721353198386
    29   1      2.0247292260928811     0.42660688409997688      30.456468720020574
    30   1      4.0495596943166259      3.8878794662810425      31.095099863702487
    31   1      2.0247170770371774      2.5858207601921359      31.691258685964389
    32   1      4.0495880421132675      1.2927987861895891      32.312622563049572
    33   1      2.0247130273519431      4.7434580755629758      32.913471896536251
    34   1      4.0495556446313916      3.4514760617952747      33.530093718317261
    35   1      2.0247130273519431       2.152888638499395      34.150529801973363
    36   1      4.0495961414837378     0.85901190265998772      34.754265603906077
    37   1      2.0247616235747574      4.3182188104019747      35.372794556624633
    38   1      4.0495961414837378      3.0080921023084839      35.974107786825854
    39   1      2.0247170770371774      1.7321463703356519      36.699023719412004
    40   1      4.0495758930575638     0.38318023411061519      37.176321894593165
    41   1      2.0247089776667084      3.9545698842636119      37.813922156687212
    42   1      4.0495677936870962      2.5717741740064022      38.302766205652439
