(written by ASE)

42 atoms
1 atom types

0.0      4.0378231517367675  xlo xhi
0.0      4.7347673463626174  ylo yhi
0.0      51.393099723599569  zlo zhi

Atoms # atomic

     1   1      4.0377868113284023      4.7177316534504055      13.220720724596818
     2   1      2.0188752354600181      1.3617806407893915      13.703867255098377
     3   1      4.0377746978589473      2.5362728244260633      14.341450050269357
     4   1        2.01887927328317      3.8804022525482149      14.817658512308229
     5   1      4.0377908491515537     0.41988863781012964        15.5388578807295
     6   1      2.0188711976368667      1.7254912640349285      16.138769533803082
     7   1      4.0377666222126436       3.011169989266234       16.75944399916499
     8   1      2.0188590841674112       4.303638370872223      17.352314797576437
     9   1      4.0377746978589473      0.8584180546628889      17.975661704123976
    10   1      2.0188671598137149      2.1471459700652518      18.584412970350012
    11   1      4.0377827735052501      3.4415556062832495      19.187356816307279
    12   1       2.018851008521108      4.7312020665508063      19.800836247707888
    13   1      4.0377585465663399      1.2917818403407664      20.399514466388098
    14   1      2.0188590841674112      2.5813620138654745      21.025687993420441
    15   1      4.0377787356820987      3.8786882667688314      21.618815757330498
    16   1      2.0188550463442594      0.4270334017357908      22.254908152609492
    17   1      4.0377868113284023      1.7249372962554042      22.824343697546976
    18   1        2.01887927328317      3.0114304014702835      23.502578434599318
    19   1       4.037770660035795       4.313827590201595      24.013939776849135
    20   1      2.0188348572285006     0.84993808634555346      24.781906866018883
    21   1      4.0377504709200362      2.1952512063042957      25.155380521710281
    22   1      4.0377383574505803    0.027774145253763111      26.310234865599288
    23   1      2.0188267815821974      3.3598429914197236      26.310902975895694
    24   1      4.0377181683348224      2.1973013605652705      27.462313982103218
    25   1      2.0188106302895905     0.84805838370904751       27.83470838270042
    26   1       4.037677790103305      4.3160955437605031      28.603189402867404
    27   1       2.018798516820135       3.012921853184388      29.112032483230763
    28   1      4.0377141305116702      1.7247999880023597      29.793196626967354
    29   1       2.018798516820135     0.42535729409517842      30.367257550879959
    30   1      4.0376979792190637      3.8764913347201198      31.004018056455362
    31   1      2.0187864033506799      2.5782465369515677       31.59843064785851
    32   1      4.0377262439811252      1.2890120014431445      32.217974465026508
    33   1      2.0187823655275281       4.729563837048965      32.817063828504502
    34   1      4.0376939413959114      3.4413662155893943      33.431879480497926
    35   1      2.0187823655275281      2.1465825327510344      34.050498221870889
    36   1      4.0377343196274298     0.85649573912026566      34.652465598933418
    37   1      2.0188308194053488       4.305570155949539      35.269182795616608
    38   1      4.0377343196274298      2.9992809884595171      35.868734696992121
    39   1      2.0187864033506799      1.7270726763286137      36.591527251504829
    40   1      4.0377141305116702     0.38205784671269233      37.067427354945359
    41   1      2.0187783277043767      3.9429864073324361      37.703159998526289
    42   1      4.0377060548653674       2.564241095141027      38.190572156304896
