(written by ASE)

48 atoms
1 atom types

0.0      4.0528516622206654  xlo xhi
0.0      4.9637092615049241  ylo yhi
0.0      42.118471237285185  zlo zhi

Atoms # atomic

     1   1  -0.0001296912531910613     0.13764862153079305      7.5742910380147057
     2   1  -0.0001296912531910613      2.6195082159925165      7.5742910380147057
     3   1      2.0266933193200396      1.6413795237574025       8.663558941153374
     4   1      2.0266933193200396      4.1232291908006031       8.663558941153374
     5   1   2.026425831110333e-05     0.83743235321775733      9.8793086134176118
     6   1   2.026425831110333e-05      3.3192869839702199      9.8793086134176118
     7   1      2.0264947295885904      2.4848080377630577        11.0554669227188
     8   1      2.0264947295885904   0.0029534070105954303        11.0554669227188
     9   1 -9.3215588231075307e-05      1.6566528571550532       12.24013316320992
    10   1 -9.3215588231075307e-05      4.1385124516167764       12.24013316320992
    11   1      2.0264987824402523     0.82247173350358149      13.392831484031941
    12   1      2.0264987824402523      3.3043263642560436      13.392831484031941
    13   1      4.0527827637424068      2.4720810872165591      14.572190797147163
    14   1      4.0527827637424068      4.9539357179690215      14.572190797147163
    15   1      2.0261502371973017        1.66350277593593       15.73086994088488
    16   1      2.0261502371973017      4.1453524429791306       15.73086994088488
    17   1      4.0527706051874217     0.84229678829403209      16.899910228546968
    18   1      4.0527706051874217      3.3241514190464945      16.899910228546968
    19   1      2.0263326155221018   0.0064329672029103824       18.07632124867558
    20   1      2.0263326155221018      2.4882826342461115       18.07632124867558
    21   1  5.2687071608868648e-05       1.648011039330773      19.247383222957055
    22   1  5.2687071608868648e-05      4.1298656700832348      19.247383222957055
    23   1      2.0261948185655863     0.86046396419114013      20.416802576860277
    24   1      2.0261948185655863      3.3423185949436025      20.416802576860277
    25   1   2.026425831110333e-05      2.3744300349149725      21.651084376468919
    26   1   2.026425831110333e-05      4.8562846656674337      21.651084376468919
    27   1       2.026336668373764     0.77716299536456457      22.885787360789937
    28   1       2.026336668373764      3.2590176261170267      22.885787360789937
    29   1  0.00013779695651550263      1.6075468814309846      24.036127047222671
    30   1  0.00013779695651550263      4.0894015121834464      24.036127047222671
    31   1      2.0263082984121286      4.9381560862266971      25.221172353954923
    32   1      2.0263082984121286      2.4563014554742346      25.221172353954923
    33   1      4.0527584466324349     0.81573101632645784       26.38705375627422
    34   1      4.0527584466324349        3.29758564707892       26.38705375627422
    35   1      2.0263285626704395      1.6317846737549133      27.546827980264098
    36   1      2.0263285626704395      4.1136393045073749      27.546827980264098
    37   1  5.2687071608868648e-05       2.461255237317217      28.725092213127155
    38   1  5.2687071608868648e-05      4.9431049043604167      28.725092213127155
    39   1      2.0261583429006262     0.81343281893838093      29.882128736486617
    40   1      2.0261583429006262      3.2952874496908433      29.882128736486617
    41   1  4.8634219946647987e-05      1.6450427411923929      31.071470127285075
    42   1  4.8634219946647987e-05       4.126897371944855      31.071470127285075
    43   1       2.026227241378884      2.4853490820725619      32.248723516838432
    44   1       2.026227241378884   0.0034894876108379617      32.248723516838432
    45   1  -2.026425831110333e-05     0.81274286335103174       33.46476801840133
    46   1  -2.026425831110333e-05      3.2945974941034941       33.46476801840133
    47   1      2.0262393999338704      1.7886329227092075      34.552224827276795
    48   1      2.0262393999338704      4.2704875534616704      34.552224827276795
