(written by ASE)

42 atoms
1 atom types

0.0      4.0528516622206654  xlo xhi
0.0       4.752389837004146  ylo yhi
0.0      51.584381438764311  zlo zhi

Atoms # atomic

     1   1      4.0528151865557058      4.7352907383706055      13.269927371977804
     2   1      2.0263893554453731      1.3668490981902734      13.754872141883627
     3   1       4.052803028000719      2.5457126639880108      14.394827978012939
     4   1       2.026393408297035       3.894844852865933      14.872808856424529
     5   1      4.0528192394073681     0.42145143552520165      15.596692481154706
     6   1      2.0263853025937109      1.7319134282994206      16.198836965689406
     7   1      4.0527949222973945      3.0223773646395267      16.821821540325359
     8   1       2.026373144038724      4.3196562280058961      17.416898964602947
     9   1       4.052803028000719     0.86161302983868859      18.042565927073717
    10   1      2.0263812497420486      2.1551375052338253      18.653582925215883
    11   1      4.0528111337040436      3.4543648484333667      19.258770888255459
    12   1      2.0263650383353999      4.7488112874568822      19.874533649489994
    13   1      4.0527868165940699      1.2965897668400039      20.475440108870156
    14   1       2.026373144038724      2.5909696724058016      21.103944212320066
    15   1      4.0528070808523813      3.8931244877449371      21.699279558504841
    16   1      2.0263690911870613      0.4286227917892409      22.337739447572424
    17   1      4.0528151865557058      1.7313573986884914      22.909294393913935
    18   1       2.026393408297035      3.0226387460805615      23.590053475761309
    19   1      4.0527989751490567      4.3298833709351294      24.103318071077016
    20   1      2.0263488269287504     0.85310149964061421      24.874143482916466
    21   1      4.0527787108907463      2.2034217859777874      25.249007182831971
    22   1      4.0527665523357586    0.027877518783866316       26.40815981814244
    23   1      2.0263407212254259       3.372348104626349      26.408830415101146
    24   1      4.0527462880774481      2.2054795707772099       27.56452689685522
    25   1      2.0263245098187772     0.85121480087532364      27.938307324760505
    26   1      4.0527057595608253      4.3321597656670541      28.709648580414349
    27   1      2.0263123512637908      3.0241357488792184      29.220385541039555
    28   1      4.0527422352257849      1.7312195793832181       29.90408493262894
    29   1      2.0263123512637908     0.42694044578694146      30.480282473299937
    30   1      4.0527260238191367      3.8909193788605676      31.119412959326226
    31   1       2.026300192708804      2.5878425998930523      31.716037915046975
    32   1      4.0527543937807717      1.2938096187853567      32.337887633291281
    33   1      2.0262961398571417      4.7471669605732787      32.939206767722951
    34   1      4.0527219709674744      3.4541747528398861       33.55631072287489
    35   1      2.0262961398571417      2.1545719708432216      34.177231922253291
    36   1      4.0527624994840972     0.85968355956486497      34.781439782045545
    37   1      2.0263447740770881      4.3215952030593936      35.400452359310712
    38   1      4.0527624994840972      3.0104441137588092      36.002235753175334
    39   1       2.026300192708804      1.7335007265049802      36.727718493730116
    40   1      4.0527422352257849     0.38347984072753855      37.205389865853078
    41   1      2.0262920870054795      3.9576619417314536        37.8434886642506
    42   1      4.0527341295224613      2.5737850307551939       38.33271493781583
