(written by ASE)

42 atoms
1 atom types

0.0      4.0448893359587661  xlo xhi
0.0      4.7430531818389214  ylo yhi
0.0      51.483037568012172  zlo zhi

Atoms # atomic

     1   1      4.0448529319547424      4.7259876764906652      13.243856965258427
     2   1      2.0224082639753598      1.3641637547882377       13.72784900143531
     3   1      4.0448407972867351      2.5407112979156548      14.366547565504069
     4   1      2.0224123088646957      3.8871929504419973      14.843589391609271
     5   1      4.0448569768440787     0.42062344227183923      15.566050857801184
     6   1      2.0224042190860239      1.7285108710575579      16.167012355332592
     7   1      4.0448327075080632      3.0164395320540991      16.788773000041473
     8   1      2.0223920844180157      4.3111697313133961      17.382681321426062
     9   1      4.0448407972867351     0.85992028492057826       18.00711908408848
    10   1      2.0224001741966879      2.1509034721662235      18.616935664081584
    11   1      4.0448488870654069      3.4475783232300747      19.220934660829499
    12   1      2.0223839946393438       4.739481662792997      19.835487680278863
    13   1      4.0448246177293914      1.2940424565479309      20.435213584908638
    14   1      2.0223920844180157      2.5858793933663073        21.0624829146373
    15   1      4.0448448421760705      3.8854759651901714      21.656648651209728
    16   1      2.0223880395286793      0.4277807095232341       22.29385420718901
    17   1      4.0448529319547424      1.7279559338352828       22.86428626344259
    18   1      2.0224123088646957      3.0167003999790998      23.543707910227646
    19   1      4.0448367523973987      4.3213767817607138      24.055964134029367
    20   1      2.0223678150819997     0.85142547667190471      24.825275164408172
    21   1      4.0448165279507196      2.1990928924937068      25.199402398414918
    22   1      4.0448043932827105    0.027822749964667111      26.356277735605719
    23   1      2.0223597253033279      3.3657227114178991        26.3569470150941
    24   1      4.0447841688360313       2.201146634521443      27.510372988767845
    25   1      2.0223435457459842     0.84954248455871473      27.883419078985661
    26   1      4.0447437199426712      4.3236487042348148      28.653244939740148
    27   1      2.0223314110779764      3.0181944617313792      29.162978494701036
    28   1      4.0447801239466949      1.7278183852930096      29.845334674627473
    29   1      2.0223314110779764     0.42610166869686317      30.420400204262165
    30   1      4.0447639443893513      3.8832751885137986      31.058275039729839
    31   1      2.0223192764099687      2.5827584643726569      31.653727852241467
    32   1      4.0447922586147023      1.2912677704365554      32.274355870123856
    33   1      2.0223152315206323      4.7378405663920811      32.874493639054165
    34   1      4.0447598995000149       3.447388601102801      33.490385217480302
    35   1      2.0223152315206323      2.1503390488375844       34.11008654068646
    36   1      4.0448003483933759      0.8579946053287516      34.713107359720588
    37   1      2.0223637701926638      4.3131048970115868      35.330903810536732
    38   1      4.0448003483933759      3.0045297255145011      35.931504926805161
    39   1      2.0223192764099687      1.7300950508202921      36.655562367161686
    40   1      4.0447801239466949     0.38272644734894623       37.13229529504148
    41   1      2.0223111866312964      3.9498866273995441      37.769140469757794
    42   1       4.044772034168024      2.5687285130607771      38.257405598052813
