(written by ASE)

68 atoms
1 atom types

0.0      6.3955321468312345  xlo xhi
0.0      3.8373190860986433  ylo yhi
0.0      51.483037568012172  zlo zhi

Atoms # atomic

     1   1      6.3894244136310094      3.8354541490227994      9.7645303203370286
     2   1      1.4828872701607303      2.3636964613786979      10.137627893592411
     3   1      2.8505334465677086     0.85511585978439397       10.57229917977914
     4   1      4.2271781367052785      3.1869932713011617      11.104788237345089
     5   1      5.6585685820197247      1.6974304230975628      11.452710605229713
     6   1     0.70480043364509559     0.21151686534484332      12.024120839197083
     7   1      2.1203427502996925      2.5547527413564635      12.507598044998284
     8   1      3.5512791128317125      1.0653587351926526      12.973776950176633
     9   1      4.9683307750729622      3.4091049746427236      13.461527248095981
    10   1      6.3839626291776153      1.9151829319573161      13.935737507134942
    11   1      1.4161179145478122     0.42486029457466962       14.41571386638152
    12   1      2.8352481247367822      2.7692665529075495      14.897801030168385
    13   1      4.2581197212316475      1.2774089878904633      15.368304510502448
    14   1      5.6790982402110508      3.6223639828526557       15.84508892141981
    15   1     0.70478124704865508      2.1300996620124426      16.318784350083089
    16   1      2.1256382509172691     0.63779313066228327      16.793766854685568
    17   1      3.5490662587089092      2.9832316278293236      17.270396816490226
    18   1      4.9727053190613946          1.491853727698      17.748004956008675
    19   1   0.0013174796222472339   0.0003261721223183847      18.220567757845458
    20   1      1.4230122982020961      2.3455267555060209      18.701985642143942
    21   1      2.8434024282239911     0.85306289407333102      19.175063274356404
    22   1      4.2644768801855983      3.1978759082293378      19.649736880733478
    23   1        5.68471351743597      1.7054082094775618      20.127345020251926
    24   1     0.71349196183263919     0.21397658687903254       20.59995930512628
    25   1      2.1393822495008092      2.5605048826665251       21.08369392611532
    26   1      3.5585060641576325      1.0675344951144703      21.569899732907626
    27   1      4.9673714452509383      3.4089745057937964      22.029128428014296
    28   1   0.0053786425354850264      1.9202328438746221      22.510185931049801
    29   1      1.4295869052490389     0.42900843650674225      22.983778393637945
    30   1      2.8597302217948517      2.7766649041055476      23.525276982778298
    31   1       4.288396170414746      1.2864497116573119       23.97374572303325
    32   1      5.6374121616780055      3.6099502556091267       24.35111638840678
    33   1     0.73689960949004152      2.1397543568330675      24.949709666210058
    34   1      2.2172286667920393     0.66501123493998104       25.28429792736457
    35   1      3.4747245930341437      2.9611900669987734      26.458626014290925
    36   1       4.938489222075849      1.4815466886327393      26.463053555521775
    37   1    0.052245102107464338    0.015656261871282464      26.463671351972593
    38   1      2.2179001976674568      0.6652184501706303      27.642324014054662
    39   1     0.73750718504399049      2.1400076198927498      27.976397444833488
    40   1      5.6401494494368496      3.6106141118110213      28.576329281613535
    41   1      4.2905003004910549      1.2871979888791012      28.953494014836799
    42   1      2.8617128367603692      2.7773824827746481      29.398770806762538
    43   1      1.4314480051037666     0.42957635973148484      29.942689098668581
    44   1   0.0057623744642949027      1.9204170351907546      30.416230078219158
    45   1      4.9664888618146756      3.4085715872897557      30.896360886578435
    46   1      3.5576042941249288      1.0671622751631189      31.354353988783473
    47   1      2.1393694584365162      2.5604051123702867      31.839581617861988
    48   1     0.71315299862885706     0.21377704628655542      32.321050985198035
    49   1      5.6853146974577724      1.7055463529646613      32.793510820959689
    50   1        4.26392686442097      3.1977838125712714       33.27250900249247
    51   1      2.8404093191792747     0.85223787046981991      33.748006337470635
    52   1      1.4172115505449205      2.3438076365554488      34.221444350946072
    53   1      6.3896098840632671      3.8355999671480712      34.703274099545098
    54   1      4.9663801377681791      1.4898966949640899      35.177896222884605
    55   1      3.5443975202417226      2.9818578675965006       35.65112830420977
    56   1      2.1233998146658779     0.63706787735501069      36.128324579427677
    57   1     0.70165383182885466      2.1291249829645738      36.595687594470093
    58   1      5.6766679379952558      3.6216579161408133      37.079061834196153
    59   1      4.2488334085544492      1.2747267018492805      37.559347091668137
    60   1      2.8326579342173153      2.7685144383666742      38.034895909683868
    61   1       1.415849302197645     0.42479889746929195      38.521925445077265
    62   1      6.3792683085818416      1.9136902148328241      38.985993545715331
    63   1      4.9634126108520498      3.4076276067945757      39.471272657831413
    64   1      3.5232283088357104      1.0568782600123745      40.044072933813112
    65   1      2.0903349134667608      2.5459077208630063      40.391531954359628
    66   1      0.7136646412006038     0.21398426151720476      40.921652792197449
    67   1      5.7435140399939364      1.7231673222080262      41.359155645450421
    68   1      4.2529137580641265      3.1945105793908293      41.731738388330122
