(written by ASE)

48 atoms
1 atom types

0.0      4.0448893359587661  xlo xhi
0.0      4.9539574433030067  ylo yhi
0.0      42.035724312997331  zlo zhi

Atoms # atomic

     1   1 -0.00012943645875068051     0.13737819386023567      7.5594104103792485
     2   1 -0.00012943645875068051      2.6143618694691821      7.5594104103792485
     3   1      2.0227116306755564      1.6381548315216652      8.6465383125619848
     4   1      2.0227116306755564      4.1151285992157254      8.6465383125619848
     5   1  2.0224446679793832e-05     0.83578711421709373      9.8598994948566538
     6   1  2.0224446679793832e-05      3.3127658358685976      9.8598994948566538
     7   1      2.0225134310980946      2.4799263263302689      11.033747096297104
     8   1      2.0225134310980946   0.0029476046787652896      11.033747096297104
     9   1 -9.3032454727051626e-05      1.6533981585747088      12.216085914048779
    10   1 -9.3032454727051626e-05      4.1303818341836553      12.216085914048779
    11   1        2.02251747598743     0.82085588648297836       13.36651961704689
    12   1        2.02251747598743      3.2978346081344818       13.36651961704689
    13   1      4.0448205728400541      2.4672243794456401      14.543561933535129
    14   1      4.0448205728400541      4.9442031010971439      14.543561933535129
    15   1      2.0221696155045379      1.6602346198464668      15.699964709385686
    16   1      2.0221696155045379       4.137208387540527      15.699964709385686
    17   1      4.0448084381720477      0.8406419925115306      16.866708273417242
    18   1      4.0448084381720477      3.3176207141630343      16.866708273417242
    19   1       2.022351635524656   0.0064203288465206976      18.040808089203569
    20   1       2.022351635524656      2.4833940965405814      18.040808089203569
    21   1  5.2583561367463956e-05      1.6447733186659179      19.209569368002146
    22   1  5.2583561367463956e-05      4.1217520403174213      19.209569368002146
    23   1      2.0222141092872334      0.8587734767540196      20.376691253552515
    24   1      2.0222141092872334      3.3357521984055234      20.376691253552515
    25   1  2.0224446679793832e-05      2.3697651746635398      21.608548154544902
    26   1  2.0224446679793832e-05      4.8467438963150427      21.608548154544902
    27   1      2.0223556804139919     0.77563616294050863      22.840825412780422
    28   1      2.0223556804139919       3.252614884592012      22.840825412780422
    29   1  0.00013752623742259806      1.6043886575881117      23.988905115217005
    30   1  0.00013752623742259806       4.081367379239615      23.988905115217005
    31   1      2.0223273661886405      4.9284544703848834      25.171622254487495
    32   1      2.0223273661886405      2.4514757487333796      25.171622254487495
    33   1      4.0447963035040395     0.81412841227497301      26.335213139195577
    34   1      4.0447963035040395      3.2911071339264768      26.335213139195577
    35   1      2.0223475906353201      1.6285788317837606      27.492708843878265
    36   1      2.0223475906353201       4.105557553435264      27.492708843878265
    37   1  5.2583561367463956e-05      2.4564197982617961      28.668658231534369
    38   1  5.2583561367463956e-05      4.9333935659558561      28.668658231534369
    39   1      2.0221777052832097     0.81183472997872352      29.823421614136723
    40   1      2.0221777052832097      3.2888134516302272      29.823421614136723
    41   1  4.8538672031505201e-05      1.6418108521148227      31.010426397287137
    42   1  4.8538672031505201e-05      4.1187895737663256      31.010426397287137
    43   1      2.0222464684019212      2.4804663076915894      32.185366927559727
    44   1      2.0222464684019212   0.0034826320826420137      32.185366927559727
    45   1 -2.0224446679793832e-05      0.8111461298941044      33.399022359924587
    46   1 -2.0224446679793832e-05      3.2881248515456085      33.399022359924587
    47   1       2.022258603069929      1.7851189330346922      34.484342725961859
    48   1       2.022258603069929      4.2620976546861966      34.484342725961859
