(written by ASE)

72 atoms
1 atom types

0.0      4.0448893359587661  xlo xhi
0.0      7.0059542204996355  ylo yhi
0.0      44.585619009728035  zlo zhi

Atoms # atomic

     1   1      2.0225255657661023      3.5020313064300503      7.7759994690106282
     2   1  8.0897786719175328e-05      7.0050014107256473      7.7759994690106282
     3   1  7.2808008047257791e-05      2.3344259819958015      8.5614643191050064
     4   1        2.02251747598743      5.8374030922456202      8.5614643191050064
     5   1  6.4718229375340254e-05       4.668992083076013      9.2386752862437653
     6   1      2.0225093862087586      1.1660149728261955      9.2386752862437653
     7   1      2.0225134310980946      3.5018981932998612      10.158476606414453
     8   1  7.2808008047257791e-05      7.0048753035496789      10.158476606414453
     9   1    2.42693360157526e-05       2.334152749781202      10.990800942088057
    10   1      2.0224689373153986      5.8371438719394622      10.990845527707068
    11   1      2.0224608475367267      1.1669327528290807      11.811978873009227
    12   1  8.0897786719175318e-06      4.6699168690331199      11.811978873009227
    13   1      2.0224284884220394      3.5018841813914201      12.641628071542248
    14   1      4.0448731564014224      7.0048612916412374      12.641628071542248
    15   1      4.0448569768440787      2.3349023868827956      13.472971523597637
    16   1      2.0224123088646957      5.8378794971326133      13.472971523597637
    17   1      4.0448407972867351      4.6705053691876408      14.287729125381407
    18   1      2.0223920844180157      1.1675282589378233      14.287729125381407
    19   1      2.0223880395286793      3.5029280685702746      15.121123515911243
    20   1      4.0448327075080632 -4.9041679543497448e-05      15.121123515911243
    21   1      2.0223718599713356      5.8383348841569465      15.949078460921891
    22   1      4.0448165279507196      2.3353577739071278      15.949078460921891
    23   1      4.0448165279507196      4.6708696788071071      16.768205453368616
    24   1      2.0223718599713356      1.1678785566488485      16.768205453368616
    25   1      4.0448003483933759  0.00075664305581396064      17.612211221222768
    26   1       2.022351635524656      3.5037337533056316      17.612211221222768
    27   1      2.0223637701926638      5.8391265569838628      18.434236278905125
    28   1      4.0448124830613832      2.3361494467340447      18.434236278905125
    29   1      4.0448084381720477      4.6719485957570637      19.239185044506755
    30   1      2.0223637701926638      1.1689784914614669      19.239185044506755
    31   1      4.0448124830613832  0.00042035725322997811      20.118948478806708
    32   1      2.0223678150819997      3.5033974675030475      20.118948478806708
    33   1      2.0223597253033279      5.8387342235475144      21.004686386053965
    34   1      4.0448043932827105      2.3357571132976971      21.004686386053965
    35   1      4.0448003483933759      4.6717734469015522      21.605477602210051
    36   1      2.0223556804139919      1.1687963366517338      21.605477602210051
    37   1      4.0448812461800943   0.0025571732904823667      22.714099018886941
    38   1      2.0224406230900471      3.5055342835403001      22.714099018886941
    39   1      2.0225377004341101      1.1694058546689172      23.822854192420856
    40   1  9.3032454727051626e-05      4.6723829649187349      23.822854192420856
    41   1  0.00010112223339896915      2.3359462740616501      24.432785460473934
    42   1      2.0225457902127819      5.8389233843114683      24.432785460473934
    43   1  0.00010516712273492791  0.00039233343634797959       25.31000751449033
    44   1      2.0225498351021178      3.5033694436861653       25.31000751449033
    45   1  0.00011730179074280422      4.6718365004895368      26.189770948790287
    46   1       2.022561969770126      1.1688593902397182      26.189770948790287
    47   1      2.0225781493274697      5.8388673366777049      26.989636953824807
    48   1  0.00012943645875068051      2.3358902264278862      26.989636953824807
    49   1  0.00014561601609451558  0.00013311313018949308      27.812107867697261
    50   1      2.0225902839954779      3.5031032174257866      27.812107867697261
    51   1      2.0225983737741493      1.1677524494728793      28.655311094409239
    52   1  0.00015370579476643313      4.6707295597226972      28.655311094409239
    53   1    0.000190109798790062      2.3353647798613486      29.475552727331205
    54   1       2.022634777778173      5.8383418901111659      29.475552727331205
    55   1   0.0001779751307821857      7.0055128453837439      30.299138281678896
    56   1      2.0226226431101653      3.5025357351339266      30.299138281678896
    57   1  0.00018606490945410325       4.670463333462318      31.120672897552147
    58   1      2.0226307328888371      1.1674862232125003      31.120672897552147
    59   1      2.0226509573355171      5.8373190207949737      31.947959058277654
    60   1  0.00020628935613389707      2.3343419105451559      31.947959058277654
    61   1      2.0226469124461812      3.5020453183384914      32.775601903955234
    62   1   0.0002022444667979383      7.0050224285883091      32.775601903955234
    63   1      2.0226469124461812      1.1667015563398044      33.598028232208677
    64   1   0.0002022444667979383      4.6696786665896219      33.598028232208677
    65   1      2.0226388226675089      5.8371648898021222      34.428390800645857
    66   1   0.0001941546881260208      2.3341877795523049      34.428390800645857
    67   1  0.00018606490945410325      7.0041957259902903      35.343733558915567
    68   1      2.0226307328888371      3.5012186157404721      35.343733558915567
    69   1  0.00019819957746197952      4.6693844165123606      36.025358502336289
    70   1      2.0226428675568453      1.1664073062625433      36.025358502336289
    71   1      2.0226428675568453      5.8369406992670658      36.807301088528902
    72   1  0.00019819957746197952       2.333963589017249      36.807301088528902
