(written by ASE)

68 atoms
1 atom types

0.0      6.4031151289903283  xlo xhi
0.0       3.841868875154594  ylo yhi
0.0       51.54407939321316  zlo zhi

Atoms # atomic

     1   1       6.397000154042142      3.8400017268812681      9.7761078181137719
     2   1      1.4846454831530842      2.3664990222422255      10.149647761476388
     3   1      2.8539132347968921     0.85612974387719987      10.584834423793287
     4   1      4.2321901694271888      3.1907719894066435       11.11795483695729
     5   1      5.6652777695616443      1.6994430131868841      11.466289725496623
     6   1     0.70563609344499212     0.21176765426739633      12.038377462681899
     7   1      2.1228567742898079      2.5577818316672976      12.522427912263561
     8   1      3.5554897532501037      1.0666218976780446      12.989159551169106
     9   1       4.974221569265362      3.4131470436383418      13.477488159340409
    10   1      6.3915318937219849      1.9174537043764064      13.952260674631294
    11   1      1.4177969612064254     0.42536403811936618      14.432806126814222
    12   1      2.8386097896386051      2.7725499855261893      14.915464886252268
    13   1      4.2631684404212447      1.2789235717190874      15.386526227826844
    14   1      5.6858317691257012      3.6266589063750581      15.863875947087392
    15   1     0.70561688409960499      2.1326252544671891      16.338133021584341
    16   1      2.1281585536166121     0.63854934200169455      16.813678698066127
    17   1      3.5532742754154731      2.9867687521359341      17.290873785088497
    18   1      4.9786013000135911      1.4936225719382266      17.769048209619335
    19   1   0.0013190417165720074  0.00032655885438814038      18.242171314369635
    20   1      1.4246995193154766      2.3483077731183686      18.724160000775573
    21   1      2.8467737614280675     0.85407434402899207       19.19779854631981
    22   1      4.2695331368594616      3.2016675295365817      19.673034958325236
    23   1      5.6914537042089561      1.7074302585783303      20.151209382856074
    24   1     0.71433792690528986     0.21423029221637041      20.624384031685771
    25   1      2.1419188480288121      2.5635407931111538        21.1086922016644
    26   1      3.5627252733458636      1.0688002373302574      21.595474487453906
    27   1      4.9732611019960133      3.4130164200965862      22.055247675641368
    28   1   0.0053850198234806504        1.92250960381611      22.536875553491551
    29   1      1.4312819216680792     0.42951709837340835      23.011029539829718
    30   1      2.8631209143523799      2.7799571087174875      23.553170166887536
    31   1      4.2934807874418839      1.2879750147889517      24.002170642481815
    32   1      5.6440962647149435      3.6142304605639333      24.379988744434069
    33   1     0.73777332827739439      2.1422913965570785      24.979291755538959
    34   1      2.2198575653788826     0.66579971793316606      25.314276727515452
    35   1      3.4788444651560906      2.9647010573170465      26.489997178474642
    36   1      4.9443446340734942      1.4833033121395616      26.494429969302455
    37   1    0.052307047488721989    0.015674825010630739      26.495048498255176
    38   1       2.220529892467427     0.66600717885242444      27.675098651883395
    39   1     0.73838162421464848       2.142544959902839      28.009568183065955
    40   1      5.6468367979901508      3.6148951038793347      28.610211340235068
    41   1       4.295587412319323      1.2887241792196069      28.987823265869753
    42   1      2.8651058800423672      2.7806755381971415      29.433628008541653
    43   1      1.4331452281706152     0.43008569496693122      29.978191207330948
    44   1   0.0057692067312200496      1.9226940135221169      30.452293649589723
    45   1      4.9723774721082128       3.412613023864695      30.932993734010825
    46   1      3.5618224341126759      1.0684275760493673      31.391529864292853
    47   1      2.1419060417985545      2.5634409045204003      31.877332812573886
    48   1     0.71399856180345345     0.21403051503486237      32.359373043059207
    49   1      5.6920555970310813      1.7075685658578359      32.832393059650734
    50   1      4.2689824689583666      3.2015753246835783      33.311959174325182
    51   1      2.8437771035477009      0.8532483422208339      33.788020291600901
    52   1      1.4188918938934827      2.3465866158622992      34.262019645700889
    53   1       6.397185844380882      3.8401477178985237      34.744420684741968
    54   1      4.9722686191510199      1.4916632188118981      35.219605552668007
    55   1      3.5486000013713106      2.9853933630786291      35.693398730450419
    56   1      2.1259174633214659     0.63782322878429032      36.171160802346108
    57   1      0.7024857608015288      2.1316494197729003      36.639077955077703
    58   1      5.6833985853766862      3.6259520025020295      37.123025316500581
    59   1      4.2538711172539516      1.2762381053753544      37.603880033159861
    60   1      2.8360165280113643      2.7717969792266595      38.079992694514978
    61   1      1.4175280303710076     0.42530256821736367       38.56759968557477
    62   1      6.3868320072173059      1.9159592173839712      39.032218017225198
    63   1      4.9692975737311684       3.411667924121407      39.518072509585622
    64   1      3.5274056902943522       1.058131367463953      40.091551936914513
    65   1      2.0928133581045856      2.5489263239100661      40.439422928739312
    66   1     0.71451081101377278     0.21423797595412072      40.970172314251222
    67   1      5.7503239447048937      1.7252104277325455      41.408193900934755
    68   1      4.2579563047062452      3.1982982105330713      41.781218403503431
