(written by ASE)

72 atoms
1 atom types

0.0      4.0378231517367675  xlo xhi
0.0      6.9937152297483092  ylo yhi
0.0      44.507730550636261  zlo zhi

Atoms # atomic

     1   1      2.0189923323314187      3.4959134633181383      7.7624152544142664
     2   1  8.0756463034735361e-05      6.9927640844770629      7.7624152544142664
     3   1  7.2680816731261806e-05      2.3303478768435149      8.5465079435248246
     4   1      2.0189842566851146      5.8272054917176703      8.5465079435248246
     5   1  6.4605170427788278e-05      4.6608356279916245      9.2225358628584377
     6   1      2.0189761810388118      1.1639780131174706      9.2225358628584377
     7   1      2.0189802188619637      3.4957805827287736      10.140730344118063
     8   1  7.2680816731261806e-05      6.9926381976029282      10.140730344118063
     9   1  2.4226938910420608e-05      2.3300751219495548      10.971600658037342
    10   1      2.0189358028072939      5.8269467242541699      10.971645165767892
    11   1      2.0189277271609907      1.1648941898125675      11.791344039318961
    12   1  8.0756463034735348e-06      4.6617587984019524      11.791344039318961
    13   1      2.0188954245757769      3.4957665952983139        12.6195438894052
    14   1      4.0378070004441611       6.992624210172468        12.6195438894052
    15   1      4.0377908491515537       2.330823449479138      13.449435033252364
    16   1        2.01887927328317      5.8276810643532926      13.449435033252364
    17   1      4.0377746978589473      4.6623462704812502      14.262769301334691
    18   1      2.0188590841674112      1.1654886556070962      14.262769301334691
    19   1      2.0188550463442594      3.4968086588675464      15.094707800787184
    20   1      4.0377666222126436 -4.8956006608238164e-05      15.094707800787184
    21   1      2.0188388950516525      5.8281356558432265      15.921216357112499
    22   1      4.0377504709200362      2.3312780409690714      15.921216357112499
    23   1      4.0377504709200362      4.6627099436731978      16.738912382788786
    24   1      2.0188388950516525      1.1658383413685838      16.738912382788786
    25   1      4.0377343196274298  0.00075532124481281736      17.581443722112333
    26   1      2.0188187059358937      3.4976129361189674      17.581443722112333
    27   1      2.0188308194053488      5.8289259456641878      18.402032750274412
    28   1      4.0377464330968849      2.3320683307900332      18.402032750274412
    29   1      4.0377423952737335      4.6637869758185788      19.205575317635599
    30   1      2.0188308194053488      1.1669363546596543      19.205575317635599
    31   1      4.0377464330968849  0.00041962291378489853      20.083801856860752
    32   1      2.0188348572285006      3.4972772377879391      20.083801856860752
    33   1      2.0188267815821974      5.8285342976113226      20.967992431979695
    34   1      4.0377383574505803      2.3316766827371675      20.967992431979695
    35   1      4.0377343196274298      4.6636121329378355      21.567734101149519
    36   1      2.0188227437590456      1.1667545180636807      21.567734101149519
    37   1      4.0378150760904639   0.0025527060588581324      22.674418821291091
    38   1      2.0189075380452319      3.4994103209330127      22.674418821291091
    39   1      2.0190044458008738      1.1673629712886688       23.78123706462431
    40   1   9.286993248994566e-05      4.6642205861628234       23.78123706462431
    41   1  0.00010094557879341919      2.3318655130483705      24.390102818557015
    42   1       2.019012521447177      5.8287231279225251      24.390102818557015
    43   1  0.00010498340194515595  0.00039164805286590531       25.26579241714078
    44   1      2.0190165592703289      3.4972492629270198       25.26579241714078
    45   1  0.00011709687140036626      4.6636750763749033      26.144018956365937
    46   1      2.0190286727397839      1.1668174615007483      26.144018956365937
    47   1      2.0190448240323908      5.8286671782006874      26.942487642444352
    48   1  0.00012921034085557656      2.3318095633265323      26.942487642444352
    49   1  0.00014536163346252361  0.00013288058936521789      27.763521747911941
    50   1      2.0190569375018468      3.4969835017482898      27.763521747911941
    51   1      2.0190650131481496      1.1657124544944482      28.605251948085574
    52   1  0.00015343727976599718       4.662570069368603      28.605251948085574
    53   1  0.00018977768813162806      2.3312850346843015      29.424060667025628
    54   1      2.0191013535565157      5.8281426495584556      29.424060667025628
    55   1  0.00017766421867641775      6.9932746256888345      30.246207465756978
    56   1      2.0190892400870601      3.4964170108146808      30.246207465756978
    57   1  0.00018573986497989132      4.6623043081898716      31.066306908883004
    58   1      2.0190973157333638      1.1654466933157177      31.066306908883004
    59   1      2.0191175048491226      5.8271215671349132      31.892147849250062
    60   1  0.00020592898073857515      2.3302639522607582      31.892147849250062
    61   1      2.0191134670259707       3.495927450748598      32.718344851461516
    62   1  0.00020189115758683838      6.9927850656227521      32.718344851461516
    63   1      2.0191134670259707       1.164663397209986      33.539334449198556
    64   1  0.00020189115758683838      4.6615210120841404      33.539334449198556
    65   1       2.019105391379667      5.8269677053998583      34.368246422973606
    66   1  0.00019381551128336486      2.3301100905257042      34.368246422973606
    67   1  0.00018573986497989132      6.9919598072256424      35.281990131178162
    68   1      2.0190973157333638      3.4951021923514878      35.281990131178162
    69   1  0.00019785333443510161      4.6612272760444906      35.962424315836287
    70   1      2.0191094292028189      1.1643696611703365      35.962424315836287
    71   1      2.0191094292028189      5.8267439065125064      36.743000894233354
    72   1  0.00019785333443510161      2.3298862916383518      36.743000894233354
