(written by ASE)

48 atoms
1 atom types

0.0      4.0378231517367675  xlo xhi
0.0      4.9453031704626795  ylo yhi
0.0      41.962290370253783  zlo zhi

Atoms # atomic

     1   1 -0.00012921034085557656     0.13713820222010054      7.5462045641538484
     2   1 -0.00012921034085557656      2.6097947327546103      7.5462045641538484
     3   1      2.0191780721963988      1.6352930711959168      8.6314333177093516
     4   1      2.0191780721963988      4.1079397111240858      8.6314333177093516
     5   1   2.018911575868384e-05     0.83432704319192907       9.842674829246727
     6   1   2.018911575868384e-05       3.306978628423269       9.842674829246727
     7   1      2.0189802188619637      2.4755940406177652      11.014471787836063
     8   1      2.0189802188619637   0.0029424553864252942      11.014471787836063
     9   1  -9.286993248994566e-05      1.6505097690514308      12.194745129080191
    10   1  -9.286993248994566e-05      4.1231662995859404      12.194745129080191
    11   1      2.0189842566851146     0.81942189943615451      13.343169091933296
    12   1      2.0189842566851146      3.2920734846674939      13.343169091933296
    13   1      4.0377545087431876      2.4629142832886988      14.518155184590773
    14   1      4.0377545087431876      4.9355658685200385      14.518155184590773
    15   1      2.0186370038940655      1.6573342874266692      15.672537792676454
    16   1      2.0186370038940655       4.129980927354838      15.672537792676454
    17   1      4.0377423952737335     0.83917344029898255      16.837243124193222
    18   1      4.0377423952737335      3.3118250255303221      16.837243124193222
    19   1      2.0188187059358937   0.0064091129089196321      18.009291856524779
    20   1      2.0188187059358937      2.4790557528370893      18.009291856524779
    21   1  5.2491700972577973e-05      1.6418999962316549      19.176011377979314
    22   1  5.2491700972577973e-05      4.1145515814629938      19.176011377979314
    23   1      2.0186814199487348      0.8572732499028759      20.341094370109406
    24   1      2.0186814199487348      3.3299248351342157      20.341094370109406
    25   1   2.018911575868384e-05      2.3656253340161859      21.570799289409695
    26   1   2.018911575868384e-05      4.8382769192475248      21.570799289409695
    27   1      2.0188227437590456     0.77428117209617131      22.800923831613687
    28   1      2.0188227437590456      3.2469327573275106      22.800923831613687
    29   1   0.0001372859871590501      1.6015858847860431      23.946997906206061
    30   1   0.0001372859871590501      4.0742374700173825      23.946997906206061
    31   1      2.0187944789969836      4.9198447497411371      25.127648908063517
    32   1      2.0187944789969836      2.4471931645097977      25.127648908063517
    33   1      4.0377302818042784     0.81270617773066633      26.289207067802515
    34   1      4.0377302818042784      3.2853577629620059      26.289207067802515
    35   1      2.0188146681127419      1.6257338001674126      27.444680695437818
    36   1      2.0188146681127419      4.0983853853987515      27.444680695437818
    37   1  5.2491700972577973e-05      2.4521285770739194      28.618575768545671
    38   1  5.2491700972577973e-05      4.9247752170020878      28.618575768545671
    39   1      2.0186450795403688     0.81041650236274199      29.771321847306915
    40   1      2.0186450795403688      3.2830680875940819      29.771321847306915
    41   1  4.8453877820841215e-05      1.6389427049357181      30.956253002782141
    42   1  4.8453877820841215e-05      4.1115942901670577      30.956253002782141
    43   1      2.0187137225339487      2.4761330786633455        32.1291409809211
    44   1      2.0187137225339487   0.0034765481288352631        32.1291409809211
    45   1  -2.018911575868384e-05     0.80972910522204766       33.34067622849107
    46   1  -2.018911575868384e-05      3.2823806904533877       33.34067622849107
    47   1      2.0187258360034037      1.7820004350508627      34.424100603560653
    48   1      2.0187258360034037      4.2546520202822027      34.424100603560653
