(written by ASE)

68 atoms
1 atom types

0.0      6.3843595276088818  xlo xhi
0.0      3.8306155149181138  ylo yhi
0.0      51.393099723599569  zlo zhi

Atoms # atomic

     1   1      6.3782624642600139      3.8287538357778637      9.7474722590765115
     2   1       1.480296753149978         2.3595672224172      10.119918052773437
     3   1      2.8455537319719717     0.85362202257538244      10.553829993739791
     4   1      4.2197935046493109      3.1814257811428814      11.085388824180979
     5   1      5.6486833948829824      1.6944651117929979      11.432703392113064
     6   1     0.70356918866155393     0.21114735779780136      12.003115405945298
     7   1      2.1166386359858103      2.5502897382894583       12.48574800544962
     8   1      3.5450752366930209      1.0634976160222309      12.951112523446813
     9   1      4.9596513928657933      3.4031494683773715      13.438010750228198
    10   1      6.3728102212234372      1.9118372198025411      13.911392591782271
    11   1      1.4136440396817413     0.42411808858070371      14.390530460505392
    12   1      2.8302951127009868      2.7644288068044101      14.871775446317178
    13   1      4.2506810360438827      1.2751774293766056      15.341456984691154
    14   1      5.6691771889666054       3.616035925618946      15.817408481231411
    15   1     0.70355003558297091      2.1263785029465594      16.290276391788247
    16   1      2.1219248856746704     0.63667894350350984      16.764429129838177
    17   1      3.5428662482964683      2.9780200973007291      17.240226447079262
    18   1      4.9640182947826785      1.4892475468122894      17.717000233215099
    19   1   0.0013151780626874294  0.00032560231876803966      18.188737495578017
    20   1      1.4205263792525034      2.3414292579540628      18.669314371093396
    21   1      2.8384351710986873     0.85157264327490112      19.141565564453554
    22   1      4.2570270894143265      3.1922894067431895      19.615409943905142
    23   1      5.6747826566318471      1.7024289614485126      20.092183730040976
    24   1      0.7122455332595744     0.21360278234286387      20.563972385503622
    25   1      2.1356448742995018      2.5560318309463201       21.04686195050656
    26   1      3.5522895629592202      1.0656695750191894      21.532218384296232
    27   1      4.9586937389366526      3.4030192274498647      21.990644833830743
    28   1   0.0053692463627188474      1.9168783098201734      22.470861957648054
    29   1      1.4270895008468858      0.4282589839523302      22.943627082005449
    30   1      2.8547344409726727      2.7718142335171723      23.484179704898274
    31   1      4.2809045940475823      1.2842023595297529      23.931864996590548
    32   1      5.6275639335656518      3.6036438844281862      24.308576417564531
    33   1     0.73561228913062271      2.1360163315820939      24.906123988050823
    34   1      2.2133552984695575     0.66384949935082405      25.240127743154499
    35   1      3.4686544531475434      2.9560170417830398      26.412404347849801
    36   1      4.9298619713099718      1.4789585135392198      26.416824154426031
    37   1     0.05215383298103695    0.015628911300865904      26.417440871622716
    38   1      2.2140256562199565     0.66405635258862961      27.594034496694803
    39   1     0.73621880328574563      2.1362691522060788      27.927524320801236
    40   1      5.6302964394434687      3.6043065809122665      28.526408111880343
    41   1      4.2830050483321669      1.2849493295551619      28.902913960455439
    42   1      2.8567135924262321      2.7725305586184623      29.347412879964853
    43   1      1.4289473494694198     0.42882591504853812      29.890380978544677
    44   1   0.0057523079343753608      1.9170621793648892       30.36309470980235
    45   1      4.9578126973218426       3.402617012820798      30.842386757824634
    46   1      3.5513893682658266      1.0652980053142425      31.299579772965778
    47   1      2.1356321055804468      2.5559322349429325      31.783959737860705
    48   1     0.71190716220461114     0.21340359033608813      32.264588006475805
    49   1       5.675382786427444      1.7025668636070497      32.736222482639285
    50   1      4.2564780344949513       3.192197471970831      33.214383882467651
    51   1      2.8354472908397672     0.85074906093919378      33.689050551514818
    52   1      1.4147357651609624      2.3397131422033794      34.161661496573039
    53   1      6.3784476106863153      3.8288993991674305      34.642649516886209
    54   1      4.9577041632098728      1.4872939328996817      35.116442503238076
    55   1      3.5382056658413146      2.9766487369463888        35.5888478758974
    56   1      2.1196903598400074     0.63595495717119033      36.065210517235442
    57   1     0.70042808377397026      2.1254055266057708      36.531757076526283
    58   1      5.6667511323461159       3.615331092364201      37.014286889831155
    59   1       4.241410946009796       1.272499829131678      37.493733117152615
    60   1      2.8277094470923045      2.7636780061634867      37.968451179299507
    61   1      1.4133758965815817     0.42405679873246499      38.454629902684758
    62   1      6.3681241013301726       1.910347110367238       38.91788730359329
    63   1      4.9547418203890619      3.4016746814041281      39.402318661587934
    64   1      3.5170734358049285      1.0550319557342618      39.974118289112702
    65   1      2.0866832210822692      2.5414601695275718      40.320970319147278
    66   1     0.71241791096681994     0.21361044357389369      40.850165067001186
    67   1      5.7334804581286836      1.7201570500515535      41.286903628452336
    68   1      4.2454841673884083      3.1889299569366063      41.658835491152018
