(written by ASE)

68 atoms
1 atom types

0.0      6.4081216911529619  xlo xhi
0.0      3.8448728122940445  ylo yhi
0.0      51.584381438764311  zlo zhi

Atoms # atomic

     1   1      6.4020019349379096      3.8430042041072698      9.7837517055832333
     2   1      1.4858063196757989      2.3683493754256366      10.157583717869958
     3   1      2.8561446945987128     0.85679914723722961      10.593110650357447
     4   1      4.2354992967410787      3.1932668373033235      11.126647907578585
     5   1      5.6697074205597149      1.7007717987726463      11.475255157341753
     6   1      0.7061878266084386     0.21193323428646005        12.0477902069306
     7   1      2.1245166248763967      2.5597817478769445      12.532219133022036
     8   1      3.5582697720549596      1.0674558837500079      12.999315706950044
     9   1      4.9781108870420301      3.4158157654245276      13.488026136700899
    10   1      6.3965293990136649      1.9189529513790837      13.963169874133357
    11   1       1.418905529220162     0.42569662803157204      14.444091062286958
    12   1      2.8408292837568574      2.7747178278298059      14.927127210079545
    13   1      4.2665017894828763      1.2799235553573767      15.398556872048413
    14   1      5.6902774911883141      3.6294945719677694      15.876279828552811
    15   1     0.70616860224336508       2.134292742977236      16.350907722170877
    16   1      2.1298225496366712      0.6390486203857686      16.826825225324921
    17   1      3.5560525619498211      2.9891040909705096         17.304393428685
    18   1      4.9824940422787787      1.4947904275996171      17.782941735292418
    19   1     0.00132007306837751  0.00032681418904499383      18.256434772518833
    20   1      1.4258134844032249      2.3501439026594242       18.73880032335272
    21   1      2.8489996389130767     0.85474214028265216      19.212809204393523
    22   1      4.2728714624438835      3.2041708965989897      19.688417201258932
    23   1      5.6959038220331477      1.7087652893494054      20.166965507866347
    24   1     0.71489646398671536      0.2143977977591405      20.640510129474205
    25   1       2.143593603150959       2.565545212222573      21.125196977472832
    26   1      3.5655109495659634      1.0696359266345785      21.612359875780523
    27   1      4.9771496687883579      3.4156850397489098      22.072492558214304
    28   1    0.005389230342259561       1.924012804000063      22.554497018378115
    29   1      1.4324010335017303     0.42985293554166187      23.029021743233308
    30   1      2.8653595735905903      2.7821307426119088      23.571586267206232
    31   1      4.2968378375687939      1.2889820757031416      24.020937813919307
    32   1      5.6485093540053803      3.6170564084199981      24.399051329865451
    33   1     0.73835018937633523      2.1439664429729683      24.998822932853962
    34   1       2.221593260375673     0.66632030324337022      25.334069827824493
    35   1      3.4815645554118597      2.9670191415366931      26.510709568442707
    36   1      4.9482105912311125      1.4844630992257954      26.515145825246439
    37   1    0.052347946095028533    0.015687081074159701      26.515764837823706
    38   1      2.2222661131532444     0.66652792637523406      27.696737666482772
    39   1     0.73895896093699476      2.1442202045785796      28.031468717638912
    40   1      5.6512520300891937      3.6177215714165247      28.632581514544835
    41   1      4.2989461096051844      1.2897318259015389      29.010488692965225
    42   1      2.8673460913148481       2.782849733827808        29.4566420080291
    43   1      1.4342657969138557     0.43042197671788146      30.001630997929638
    44   1    0.005773717643728726      1.9241973578950526      30.476104138403397
    45   1      4.9762653479949792      3.4152813281036187       30.95718007970131
    46   1      3.5646074044075102       1.069262973971786      31.416074736980558
    47   1      2.1435807869075769      2.5654452455294536      31.902257532040913
    48   1     0.71455683353708432     0.21419786437290123      32.384674667256235
    49   1      5.6965061854721162      1.7089037047706479      32.858064535719777
    50   1      4.2723203639784426      3.2040786196514945      33.338005620626035
    51   1      2.8460006379616178     0.85391549262800903      33.814438967594462
    52   1      1.4200013180293494      2.3484213996395162      34.288808939305341
    53   1       6.402187770466953      3.8431503092741366      34.771587165190738
    54   1      4.9761564099262285      1.4928295424653473      35.247143577674706
    55   1      3.5513746331152798      2.9877276265037089       35.72130721185983
    56   1       2.127579707044768     0.63832193942424498      36.199442843415731
    57   1      0.7030350307363914      2.1333161452829139      36.667725858116839
    58   1      5.6878424049456777      3.6287871153703071      37.152051615445394
    59   1       4.257197196787323      1.2772359892615832      37.633282309887626
    60   1      2.8382339944719401      2.7739642327585967      38.109767241237492
    61   1      1.4186363881091335     0.42563511006657528      38.597755489648208
    62   1      6.3918258376923589      1.9174572958551015      39.062737103937231
    63   1      4.9731830414615343      3.4143354893917945       39.54897148337902
    64   1      3.5301637503175627      1.0589587148348381      40.122899311266707
    65   1      2.0944497179015071      2.5509193160446069      40.471042301596931
    66   1     0.71506948327237674      0.2144054875047651      41.002206677271886
    67   1      5.7548200928616087      1.7265593607247021      41.440570750738509
    68   1      4.2612855784262775      3.2007989431426078      41.813886919210844
