(written by ASE)

72 atoms
1 atom types

0.0      4.0528516622206654  xlo xhi
0.0      7.0197453748789744  ylo yhi
0.0       44.67338537752164  zlo zhi

Atoms # atomic

     1   1      2.0265068881435773      3.5089250218138783      7.7913064501520397
     2   1  8.1057033244413319e-05      7.0187906895079903      7.7913064501520397
     3   1  7.2951329919971971e-05      2.3390212773819234      8.5783174803478381
     4   1      2.0264987824402523      5.8488939648214116      8.5783174803478381
     5   1   6.484562659553065e-05      4.6781829496713447      9.2568615308470132
     6   1      2.0264906767369286      1.1683102622318575      9.2568615308470132
     7   1      2.0264947295885904      3.5087916466517561      10.178473471185285
     8   1  7.2951329919971971e-05      7.0186643340912438      10.178473471185285
     9   1  2.4317109973323994e-05      2.3387475073123034      11.012436229412859
    10   1      2.0264501482203059      5.8486342342425415      11.012480902798236
    11   1      2.0264420425169818      1.1692298488759667      11.835230641296054
    12   1  8.1057033244413312e-06      4.6791095560608289      11.835230641296054
    13   1      2.0264096197036841      3.5087776071610066      12.666512996400977
    14   1      4.0528354508140163      7.0186502946004934      12.666512996400977
    15   1      4.0528192394073681      2.3394986200674155      13.499492940150244
    16   1       2.026393408297035      5.8493713075069023      13.499492940150244
    17   1       4.052803028000719      4.6796992146723184      14.315854384539076
    18   1       2.026373144038724      1.1698265272328314      14.315854384539076
    19   1      2.0263690911870613      3.5098235492218635       15.15088930401571
    20   1      4.0527949222973945 -4.9138217624152825e-05       15.15088930401571
    21   1      2.0263528797804127      5.8498275909562709      15.980474070476285
    22   1      4.0527787108907463      2.3399549035167824      15.980474070476285
    23   1      4.0527787108907463      4.6800642414318121      16.801213506632116
    24   1      2.0263528797804127      1.1701775145015754      16.801213506632116
    25   1      4.0527624994840972  0.00075813250048692926      17.646880691828599
    26   1      2.0263326155221018      3.5106308199399741      17.646880691828599
    27   1      2.0263447740770881      5.8506208221836316      18.470523898033964
    28   1       4.052774658039084      2.3407481347441439      18.470523898033964
    29   1      4.0527706051874217      4.6811452822195436      19.277057197639742
    30   1      2.0263447740770881      1.1712796145254314      19.277057197639742
    31   1       4.052774658039084  0.00042118472249273845      20.158552437908998
    32   1      2.0263488269287504      3.5102938721619799      20.158552437908998
    33   1      2.0263407212254259      5.8502277164426379      21.046033911818842
    34   1      4.0527665523357586      2.3403550290031507      21.046033911818842
    35   1      4.0527624994840972      4.6809697885851724      21.648007779780947
    36   1       2.026336668373764      1.1710971011456845      21.648007779780947
    37   1      4.0528435565173409   0.0025622070618308256      22.758811507193027
    38   1      2.0264217782586704      3.5124348945013182      22.758811507193027
    39   1      2.0265190466985641       1.171707818993299      23.869749254761231
    40   1  9.3215588231075307e-05      4.6815805064327858      23.869749254761231
    41   1  0.00010132129155551664      2.3405445621282723      24.480881166725727
    42   1      2.0265271524018882      5.8504172495677595      24.480881166725727
    43   1   0.0001053741432177373   0.0003931057409932226      25.359830024028462
    44   1      2.0265312052535505      3.5102657931804799      25.359830024028462
    45   1   0.0001175326982043993      4.6810329662935466      26.241325264297721
    46   1      2.0265433638085373      1.1711602788540583      26.241325264297721
    47   1      2.0265595752151859      5.8503610916047615      27.042765797970461
    48   1   0.0001296912531910613      2.3404884041652734      27.042765797970461
    49   1  0.00014590265983994394  0.00013337516212270052      27.866855738029603
    50   1      2.0265717337701732      3.5099990428562347      27.866855738029603
    51   1      2.0265798394734968      1.1700511590848275      28.711718802289294
    52   1   0.0001540083631643853      4.6799238465243151      28.711718802289294
    53   1  0.00019048402812437125      2.3399619232621576      29.533575073079561
    54   1      2.0266163151384573      5.8498346107016443      29.533575073079561
    55   1  0.00017832547313770928      7.0193031309203571      30.358781847773134
    56   1      2.0266041565834705      3.5094304434808703      30.358781847773134
    57   1  0.00018643117646215061       4.679657096200069      31.181933646739349
    58   1       2.026612262286795      1.1697844087605822      31.181933646739349
    59   1       2.026632526545106      5.8488097278769127      32.010848312419263
    60   1  0.00020669543477325395       2.338937040437425      32.010848312419263
    61   1      2.0266284736934437      3.5089390613046287      32.840120365182194
    62   1  0.00020264258311103328      7.0188117487441151      32.840120365182194
    63   1      2.0266284736934437      1.1689981972785957      33.664165631855965
    64   1  0.00020264258311103328      4.6788708847180827      33.664165631855965
    65   1      2.0266203679901196      5.8486552934786653      34.496162761126932
    66   1  0.00019453687978659195      2.3387826060391781      34.496162761126932
    67   1  0.00018643117646215061      7.0179834187898802      35.413307362927441
    68   1       2.026612262286795      3.5081107313503925      35.413307362927441
    69   1  0.00019858973144881262      4.6785760554123375      36.096274078578993
    70   1      2.0266244208417814      1.1687033679728507      36.096274078578993
    71   1      2.0266244208417814      5.8484306616266686      36.879755911329973
    72   1  0.00019858973144881262      2.3385579741871818      36.879755911329973
