(written by ASE)

68 atoms
1 atom types

0.0      6.4031151289903283  xlo xhi
0.0       3.841868875154594  ylo yhi
0.0       51.54407939321316  zlo zhi

Atoms # atomic

     1   1      4.7411223671680522      5.3773775374965815       10.62698935674379
     2   1     0.42529019374842736      3.4565291037720365      10.217891801449975
     3   1      2.2421596335928418      1.5355559310598053      9.8196129488215718
     4   1      2.7908031402518336      3.4564870665655478      11.150196719491618
     5   1      5.1663277187686667      3.4564135219757453      12.101367117848758
     6   1      0.7098604360429569      1.5356277956501359      11.674144272875818
     7   1      1.1407087692609901      3.4566603027724381      13.080462153795171
     8   1      3.1555523338811078      1.5355399872958366      12.568874003121048
     9   1      3.5090311831054475      3.4564330223118716      14.009745514531259
    10   1      5.5087874035532929      1.5353629802987527      13.567797978887757
    11   1      1.4934504382476379      1.5359722693425857      14.489731849819389
    12   1      1.8492568948366206      3.4575721959669674      15.916717483089931
    13   1      3.8578512261402094      1.5353481212936944       15.44844169362646
    14   1      5.8769564743044631      3.4560700434187752      14.974759314260327
    15   1    -0.16763096838279229      1.5345603378467281      16.394923293725899
    16   1      2.2025907668462077      1.5384126717698381      17.346420230741241
    17   1      4.2193384766844018      3.4557935118487189      16.871966275220789
    18   1      4.5779261076406739      1.5333490780004391      18.294221416534274
    19   1     0.19002666267945337    -0.38771762082830158      17.820436367244987
    20   1     0.54336904856953139      1.5301252225190394      19.250544329864503
    21   1      2.5614460352197845    -0.37797828987401433      18.769753248556476
    22   1       4.937537392106174       3.449788238690819      19.721088975950423
    23   1      5.2848560189267859      1.5156242050148907      21.161696780990869
    24   1     0.90022084105176825    -0.39736508071187687      20.672235662681476
    25   1      2.9213829838765863      1.5544087398141526      20.188106396371673
    26   1      3.2893727292027961    -0.33829602389820917       21.60913733577441
    27   1      5.6400893597400055      3.3999137870762199       22.59789494166775
    28   1        1.26325101603684      1.5105754859131744      22.075047463535824
    29   1      1.6680466800795184    -0.43347284618865894      23.465569813732241
    30   1      3.6211209799193309      1.6558213789286871      23.073966282302031
    31   1      6.0244706899878997      1.3991224179824904      23.995581658097755
    32   1      6.5404315209835557      3.2037882089945176      25.303610069946625
    33   1      2.0295376760291002       1.391710002635004      25.071652092000264
    34   1      3.9315914214008378   -0.092915135804047491      24.554032465289033
    35   1      4.4446982942236692       2.156191389236886      26.011363246132511
    36   1      6.5403829598296408       1.108334884021086      26.718808376197202
    37   1      2.0294936835487545    -0.92147374285631989      26.950764452382305
    38   1      3.9315092094494877     0.56308575023264429      27.468229799516362
    39   1      1.6680177575216502     0.90371980746914349      28.556896383400584
    40   1      6.0246138749694067      2.9130305275985364      28.026893840514944
    41   1      5.6400025013631661     0.91223683329010763      29.424399553429261
    42   1      3.6211512072758851       2.656259539314592      28.948354573413258
    43   1      1.2634168963268233     -1.0403367355824058      29.947518581136357
    44   1     0.90014039174290794     0.86761617286628834      31.350008210780263
    45   1      5.2847703156107109      2.7965196162429153      30.860489763835812
    46   1      3.2892975605766024     0.80856047270034059      30.413415350097139
    47   1      2.9217396298997973      2.7577318360218253      31.834926346917321
    48   1      0.5431336570254417     -1.0598659535310868      32.771065556101291
    49   1      4.9371848364797124     0.86232530476707892      32.301396216852574
    50   1      4.5787796046263072      2.7787477132014766      33.730187853893881
    51   1       2.561562294700205     0.84821342036313352      33.252782740403262
    52   1      2.2028427601506881      2.7736523876263046      34.673568565898591
    53   1      6.5914619401709622       4.699818891287701      34.200895906826489
    54   1      4.2202825965235959     0.85629857076614013      35.153132219379721
    55   1      3.8612838551404671      2.7767410976273896      36.572301318345637
    56   1      1.8426572903232052     0.85448882160768513      36.098589171139913
    57   1    -0.16572734462083719      2.7775135397716886      35.631633540221934
    58   1      5.8813771207602787      4.6978744984191438      37.058179453672338
    59   1      3.4934383838099508     0.85565753005683109        37.9794916462766
    60   1      1.4937920569773884      2.7761158629578433      37.537920632543006
    61   1       1.140312566908624     0.85543444500639965      38.978851585332229
    62   1      5.5283967686601363      2.7767189687640133      38.467042017553439
    63   1      5.0975880968772778      4.6975514466747308      39.873322954677235
    64   1       3.151005658231278      2.7765465415424866      39.446175662964919
    65   1     0.77548580890810115      2.7764549219488641       40.39739588223761
    66   1     0.22675792815810286     0.85555143234202546      41.727911028539943
    67   1      4.8130774707606081       2.776578068740768      41.329620303120905
    68   1      2.7258531012598839      4.6974574095472583      40.920703959158459
