(written by ASE)

48 atoms
1 atom types

0.0      4.0496852345588978  xlo xhi
0.0      4.9598311954860979  ylo yhi
0.0      42.085564754760718  zlo zhi

Atoms # atomic

     1   1  -8.284133522174205e-05     0.11441246758531219      7.6653624357787775
     2   1 -8.2841333355962763e-05      2.5943281975871102      7.6653624826881623
     3   1      2.0247605571441563      1.5688409200024789      8.6946046489777959
     4   1      2.0247605570305978      4.0487564387925463      8.6946047006777007
     5   1 -8.1226517681343822e-05     0.85255638232599984      9.9386959094381009
     6   1 -8.1226294539209291e-05      3.3324727278756154      9.9386954228542024
     7   1      2.0247627269800339      2.4546772598679274      11.052614396626627
     8   1      2.0247627272771145   -0.025235899767027923       11.05261359001195
     9   1 -7.8432744887376888e-05      1.6585978964225165      12.254981962576119
    10   1 -7.8433007493723889e-05      4.1385108430885618      12.254983009328818
    11   1      2.0247664776404575     0.81529094126586854      13.405445270555937
    12   1      2.0247664777125629      3.2952082426271851      13.405444722797526
    13   1      4.0496111242370709      2.4783039820348249      14.585407016941911
    14   1      4.0496111238491634      4.9582189083733246      14.585407222219994
    15   1      2.0247708403773759      1.6460761420593704      15.747985057938166
    16   1      2.0247708411135106      4.1259946268591934      15.747983998117569
    17   1      4.0496168241847901     0.82246587468523213      16.921497829818311
    18   1      4.0496168231903846       3.302377483270392      16.921499245965187
    19   1       2.024777499135364  -0.0062924152350564725      18.087728323104798
    20   1      2.0247775003160968      2.4736266355444512      18.087727028358344
    21   1 -6.1226389278335803e-05      1.6510981992438285      19.258549161291672
    22   1 -6.1225416784535877e-05      4.1310155087333209      19.258548506513762
    23   1      2.0247842032247845     0.84549841114628299      20.409045275109925
    24   1      2.0247842026737581      3.3254137075332162      20.409045634928827
    25   1 -5.2701277600390655e-05      2.3542208558328062      21.628879167584952
    26   1 -5.2701329883218644e-05      4.8341362784442543      21.628879086477195
    27   1      2.0247962961602868     0.85361863203993682      22.847025730409971
    28   1      2.0247962961265373      3.3335335915009452      22.847025324198892
    29   1 -4.3409577621837233e-05       1.656204404559368      24.000497725494615
    30   1 -4.3409535824876253e-05      4.1361208370765317      24.000498010941143
    31   1      2.0248024380223582      4.9621241832168996      25.167400349136365
    32   1      2.0248024380400613      2.4822090078381205      25.167400537267145
    33   1      4.0496480695943333     0.82583322694867745      26.339548194310375
    34   1      4.0496480694769774      3.3057491512953354      26.339548335901664
    35   1      2.0248084503080523      1.6580638964715184      27.503237253942615
    36   1       2.024808450472138      4.1379782805652408        27.5032368000982
    37   1 -3.1108145159157448e-05       2.475252010619752      28.682694895044598
    38   1 -3.1108368014692926e-05      4.9551693528277694        28.6826955173198
    39   1      2.0248128690872655      0.8384146339714289      29.833425555151081
    40   1      2.0248128688673819      3.3183317314858387      29.833426164347969
    41   1 -2.7789264291190828e-05       1.634643509596029      31.035649156816245
    42   1 -2.7789056715327578e-05      4.1145581557285826      31.035648825877804
    43   1      2.0248159315857057      2.5123582504169488      32.149673774350589
    44   1      2.0248159315011813    0.032442751977591784      32.149673926691399
    45   1 -2.5606542987337752e-05     0.74881648166548131      33.393707306536982
    46   1 -2.5606630831085389e-05      3.2287320007790976      33.393707290647328
    47   1      2.0248171957960635      1.7742789926566076      34.422994917254606
    48   1       2.024817195781305      4.2541946619713267      34.422994902437743
