(written by ASE)

68 atoms
1 atom types

0.0      6.3843595276088818  xlo xhi
0.0      3.8306155149181138  ylo yhi
0.0      51.393099723599569  zlo zhi

Atoms # atomic

     1   1      4.4207377794197615      4.0432824274510164      10.305152460467266
     2   1    -0.40184775828857822      2.1270610019195351      10.263102730553854
     3   1      1.2065365905294527      0.2120121230732982      10.218449424852215
     4   1      2.8397908007793253      2.1280116680081012      10.218948955213881
     5   1      4.3800415038624969      2.1300773189965465       12.20488344416181
     6   1    -0.31894739242728765     0.20865739083526033      12.213008649789705
     7   1      1.2506557071454965      2.1262039266741586      12.122542884237914
     8   1      2.7529119548515739     0.21447420603662409      12.175510303730537
     9   1      4.3539709301053913       4.057042015764166      14.058489951975561
    10   1      6.1329030171375765      2.1035490520252744      14.051262843706445
    11   1      1.2707728473628654     0.20358465305290391      14.231531686183438
    12   1      2.7017094236066765      2.1422519110529956      14.123002401065294
    13   1      4.4534723889100949      2.1474383649725155      15.732946824525126
    14   1      5.8820782927747288       3.953602345770324      16.057023715576779
    15   1      1.1593813721968889      2.0724891522492501      16.184351626767004
    16   1      3.0415162473914972     0.31122749857306525      16.222387215192757
    17   1      3.1115962443086715      2.3320477735812997      17.811563715625972
    18   1      5.4928391037996525      1.7061194094109056      17.804524600682988
    19   1      1.1452653962918429     0.12246764766054581      17.807647923559795
    20   1      1.1174808849687725       2.033288498215541      19.216907743981672
    21   1       3.190150797052961     0.47044338081988119      19.198570332455787
    22   1      5.4666084487893265      3.5794730995251571      19.175556641920082
    23   1      5.4659372287341146       1.642184297014176      20.649095756118118
    24   1      1.1280229001207918       0.115928677759096      20.652585101800817
    25   1      3.1699449868032428       2.410431557268927      20.651884719790822
    26   1       3.172252306680444     0.50566874071149548      22.090575176663378
    27   1      5.4669198976023283      3.5486368503279335      22.086595479707995
    28   1      1.1263719863654853       2.029371135977986      22.093090397505463
    29   1      1.1265830419819203     0.11327006339462577      23.533805659517611
    30   1      3.1717523252487485      2.4256902516937004      23.533628395958441
    31   1      5.4660098184340411      1.6294559668662369      23.532395969437829
    32   1      5.4659913567488418       3.543515413602365      24.974638507666597
    33   1      1.1266088647124597      2.0280886002811709      24.975656998877209
    34   1      3.1716367654042172     0.51206313554325755      24.975662456510161
    35   1      3.1715172687550761      2.4275588885941497      26.418472198228027
    36   1      5.4658700854886639      1.6284032702484206       26.41745625854584
    37   1      1.1265319227448629     0.11237012367473954      26.417448393458557
    38   1      3.1714906789124901     0.51101276328362943      27.860708100656158
    39   1      1.1265617046038938      2.0272143566310015      27.859296889471327
    40   1      5.4657450171171575      3.5453919723740568      27.859483347773974
    41   1      5.4652652977859075      1.6348218662089489      29.302539753884545
    42   1      3.1705952244765401       2.422455355206901      29.306511440339541
    43   1      1.1267797672289104      0.1111157456017105      29.300011893666611
    44   1      1.1251623326691997      2.0245776238849116      30.740518263264651
    45   1      5.4675877848570904      3.5606871448885919      30.741230386381702
    46   1      3.1716020213656098     0.49829980167255339      30.743996525335501
    47   1      3.1709857778176982      2.3916335960084667      32.217550051287411
    48   1      1.1357233845924506     0.10722969314445588      32.176172689969661
    49   1      5.4474349157240889      1.6700835151570048      32.194561233865748
    50   1      5.5260154270056985      3.6391239694852633      33.581526768533244
    51   1      3.1447072278775239     0.43437679633637272      33.588563452307376
    52   1      1.1080082757716607      2.0180769903618301       33.58543966379272
    53   1      7.4783137483507121      3.8987595909509656      35.208744725950332
    54   1      5.5963255157391263      1.8294749222722637      35.170830993063667
    55   1      4.1843304040874285      3.8238986612529509      35.660126309943124
    56   1      2.7556966724192988      2.0176838732103763      35.335998085646217
    57   1     0.98271818323797244      1.9371892229113359      37.161577907094461
    58   1      5.9360740266954233      3.8291479236545931       37.27013740219472
    59   1      4.2837664255938375      1.9143539668254392      37.334615550617059
    60   1      2.5049005088053486      3.8678403325405464      37.341800403184614
    61   1      1.0028288410051265    0.014648661362014743       39.27056417185878
    62   1      5.8849036491361328      1.9263681984776813      39.217576897222742
    63   1      4.2577463668602809      3.8413900633372506      39.188226587156649
    64   1      2.5723968432901954      1.9321847800245167      39.180112976561091
    65   1      1.0469212523774523      1.9288874645289615      41.174668760697209
    66   1    -0.58633490142551248    0.012889768150467664      41.174133856936542
    67   1      4.2170908128094986      1.9282270596453497      41.087945645828249
    68   1      2.6553054155188711      3.8444476504295553      41.130016501192678
