(written by ASE)

72 atoms
1 atom types

0.0      4.0378231517367675  xlo xhi
0.0      6.9937152297483092  ylo yhi
0.0      44.507730550636261  zlo zhi

Atoms # atomic

     1   1      2.0188824902479299      3.4968996188168773      7.7028653706402652
     2   1 -2.9084147530427973e-05      6.9937572796951235      7.7028653875590285
     3   1 -2.7624820033315945e-05       2.331275706750243      8.5056665693317495
     4   1      2.0188839499936644      5.8281333285565866        8.50566653264171
     5   1 -2.5403295713774445e-05      4.6625065371502394      9.2689410233652048
     6   1      2.0188861682447539      1.1656488862108529      9.2689410202914981
     7   1      2.0188893998626418      3.4968770172119941       10.14801580752882
     8   1  -2.217529405687062e-05      6.9937346030611502      10.148015767298013
     9   1 -1.8036482565660464e-05      2.3312439863870966       10.95544697797475
    10   1      2.0188935349855721      5.8281015672464882      10.955446913826352
    11   1      2.0188985329192626      1.1656083182989785      11.765896579089519
    12   1 -1.3047896107685591e-05       4.662465896367328      11.765896511960136
    13   1      2.0189041954679268      3.4968271322451483      12.607170770223119
    14   1      4.0378157702439186      6.9936847911230204      12.607170835125078
    15   1      4.0378218934487089      2.3311866346334065      13.427555034100957
    16   1      2.0189103296705135      5.8280442970385229      13.427555080185064
    17   1      4.0378284041490877      4.6624014385843804      14.244097163531853
    18   1      2.0189168366440056      1.1655437732924692      14.244097108513023
    19   1      2.0189235606556979       3.496756885563471      15.075849389717336
    20   1      4.0378351180612029  -0.0001007797645077497      15.075849326950147
    21   1      2.0189303756661112      5.8279686749572814      15.905098732444143
    22   1      4.0378419347474432      2.3311111044276833      15.905098799502188
    23   1      4.0378485550662822      4.6623230720954485      16.710655209060565
    24   1      2.0189370034087362      1.1654654936413067      16.710655275842601
    25   1      4.0378549605983602   -0.000179422398718361      17.549655161362018
    26   1      2.0189434070266974      3.4966781561750624      17.549655114645258
    27   1      2.0189497233158717      5.8278912818666138      18.394155940637201
    28   1       4.037861275827006      2.3310336343238895      18.394155904666086
    29   1      4.0378669194109875      4.6622506991740202      19.152773619063666
    30   1      2.0189553643982481      1.1653930637931074      19.152773577741083
    31   1      4.0378719555455849 -0.00024510959844314576      20.035164740736771
    32   1      2.0189603965476692      3.4966125282451039       20.03516476113035
    33   1      2.0189662195975955      5.8278340199762013      20.924796877717352
    34   1      4.0378777815963076      2.3309764213359752      20.924796889966512
    35   1      4.0378771599745731      4.6622116292922362      21.512948583271971
    36   1      2.0189655863359843      1.1653540179472204      21.512948610222235
    37   1      4.0378979191883593 -0.00030111163346620431      22.670952287509571
    38   1      2.0189863572691715       3.496556497854991      22.670952287821169
    39   1      2.0190064411290543       1.165297510756911      23.828831289798877
    40   1  9.4871868167141022e-05      4.6621551217427957      23.828831294119684
    41   1  9.3688191605399923e-05      2.3309266149866663      24.416837828860455
    42   1      2.0190052580459894      5.8277842300202272      24.416837820509116
    43   1  9.8457108081667025e-05 -0.00030313040685101396      25.307136343041293
    44   1      2.0190100251079888      3.4965544849912722      25.307136348354636
    45   1  0.00010202410809215323      4.6621907279086541      26.188990449413097
    46   1      2.0190135889419829      1.1653331148577288       26.18899044926933
    47   1      2.0190174324115331         5.8278307407057      26.947030419092812
    48   1  0.00010586639904949829      2.3309731295202489      26.947030418112817
    49   1  0.00010995018184385321 -0.00023848984661564308      27.793566088594748
    50   1      2.0190215131906997      3.4966191274646237      27.793566086285878
    51   1      2.0190254755315666      1.1654098537327549      28.630686457138559
    52   1   0.0001139095389370268      4.6622674727904192      28.630686452097951
    53   1  0.00011784551886360531      2.3310601512536682      29.434767899866952
    54   1      2.0190294098831618      5.8279177703224594      29.434767893059078
    55   1  0.00012178188726127386      6.9935696017157118      30.270704656341422
    56   1      2.0190333502567479      3.4967119828907958      30.270704663734655
    57   1  0.00012552608778111689       4.662363725861173      31.095100813525825
    58   1      2.0190370946455651      1.1655061144127439      31.095100808280481
    59   1      2.0190405773536879      5.8280133078968177      31.908213224009646
    60   1  0.00012900654987556306      2.3311556971077274      31.908213219878682
    61   1      2.0190437972095663       3.496804340632564      32.751255218584284
    62   1  0.00013222460841212899      6.9936619521356063      32.751255221017693
    63   1      2.0190466031118879      1.1655923822402545      33.563658012696891
    64   1  0.00013502926162078471      4.6624499998049105      33.563658008674587
    65   1      2.0190489206538675      5.8280916061548753      34.368951782633253
    66   1  0.00013734588284262058      2.3312339894083167      34.368951786723201
    67   1  0.00013913837607420739      6.9937282962493041      35.248666391207593
    68   1       2.019050713355099        3.49687067991252      35.248666394660383
    69   1  0.00014037442037571768      4.6625026489604915      36.012624125826783
    70   1      2.0190519501193398      1.1656450347173062      36.012624124125672
    71   1      2.0190527495473205      5.8281303666924638      36.814489906494011
    72   1  0.00014117356877731756      2.3312727513106362      36.814489906871252
