(written by ASE)

72 atoms
1 atom types

0.0      4.0528516622206654  xlo xhi
0.0      7.0197453748789744  ylo yhi
0.0       44.67338537752164  zlo zhi

Atoms # atomic

     1   1       2.026465600935071      3.5098120065415732      7.8568350197227286
     2   1  3.9739846004626637e-05      7.0196843440262375      7.8568351415729554
     3   1  3.9005318791879901e-05      2.3398487762399642      8.5849735571049433
     4   1      2.0264648152155069      5.8497215742077415      8.5849740748086223
     5   1  3.8032580622111349e-05      4.6797569940967172      9.3363434753447638
     6   1      2.0264638781319313      1.1698844116382379      9.3363433671166813
     7   1      2.0264622945052819      3.5097884901767831      10.234207286629788
     8   1  3.6463794220288189e-05      7.0196611416148693      10.234207258629173
     9   1  3.4998842891329846e-05      2.3398208985178623      11.042257038337935
    10   1      2.0264608327130356      5.8496935625214173      11.042257326520962
    11   1      2.0264593591649467      1.1698536443447507      11.853297783426239
    12   1  3.3525910981491409e-05      4.6797262538374778      11.853297840600602
    13   1      2.0264579123107311      3.5097592299535152      12.700435946633069
    14   1      4.0528837401605324      7.0196319123051181      12.700436017913583
    15   1      4.0528826336860675       2.339794073830705      13.523956572056365
    16   1      2.0264568018456242      5.8496667757330298      13.523956759780058
    17   1      4.0528818610577186      4.6797028514377921      14.340864121611743
    18   1      2.0264560321863105      1.1698301862555789      14.340864056858047
    19   1      2.0264556347443796      3.5097396845379367      15.177695862572065
    20   1      4.0528814664581319 -0.00013301423517310073      15.177695872261047
    21   1      2.0264556853346045      5.8496495765663159      16.013626594495221
    22   1      4.0528815178690438      2.3397768975604878       16.01362648349717
    23   1      4.0528819731635046       4.679687134422168      16.812049699448078
    24   1       2.026456143138871      1.1698144725308468      16.812049680200218
    25   1      4.0528829899241074 -0.00014862153319790289      17.662213484779667
    26   1      2.0264571568727994      3.5097240699006149      17.662213460467726
    27   1      2.0264588241096373       5.849633453664226      18.522455440845125
    28   1      4.0528846565476675      2.3397607586602116      18.522455346060656
    29   1      4.0528862638411622      4.6796722231143546      19.248742058191912
    30   1      2.0264604366261456      1.1697995473800102      19.248742004086449
    31   1      4.0528896282661924 -0.00016243994463695352      20.167422033885245
    32   1      2.0264637929488001      3.5097102785542496       20.16742202167266
    33   1      2.0264688092803871      5.8496246133442256       21.10483165150556
    34   1      4.0528946259434546      2.3397519208847481      21.104831510085194
    35   1      4.0528949266222289      4.6796651231818363      21.597115043237231
    36   1      2.0264690839474895       1.169792489964413      21.597115031316974
    37   1      4.0529197227038214 -0.00013359135926460856      22.754089774143473
    38   1      2.0264938937243726      3.5097390870354501      22.754089770680494
    39   1      2.0265185106564743      1.1698558881182202       23.91100420888317
    40   1  9.2676319785996042e-05      4.6797286169617021      23.911004214811847
    41   1   9.273161359158591e-05      2.3398114375124814      24.403044577505273
    42   1       2.026518559374356      5.8496841225332687      24.403044648067141
    43   1  9.7033165950712147e-05 -0.00010390937545406504      25.341011059907729
    44   1      2.0265228643099022      3.5097687535683182      25.341011053295507
    45   1  9.9478137353456447e-05      4.6797224410080194      26.259303927508849
    46   1      2.0265253102358098      1.1698497556196625       26.25930388374497
    47   1      2.0265261875426055      5.8496767926289701      26.984886714651044
    48   1  0.00010035816497234506      2.3398041117821688      26.984886683878511
    49   1  0.00010089209201583937 -0.00011572867648001713      27.847211377384848
    50   1      2.0265267223364485      3.5097569625129101      27.847211366117389
    51   1      2.0265265291995491       1.169837331458673      28.695574928684426
    52   1  0.00010069707310078817      4.6797100202728412      28.695574923863393
    53   1  0.00010002203430518113      2.3397909692976548      29.492074423172543
    54   1      2.0265258508847799       5.849663663796008      29.492074436907952
    55   1   9.882270760062013e-05      7.0196169108027116      30.335455885460981
    56   1      2.0265246541974138      3.5097442192182267      30.335455881764847
    57   1  9.7314908950766878e-05      4.6796976112735678      31.164467200889639
    58   1      2.0265231447912764       1.169824925254235      31.164467189973895
    59   1      2.0265214631663246      5.8496504451252571      31.976783275015347
    60   1  9.5632907291699258e-05      2.3397777563821416      31.976783266432133
    61   1       2.026519501155756      3.5097294333986357      32.826691652250332
    62   1  9.3670407247766003e-05      7.0196021217094779      32.826691655974336
    63   1      2.0265176781099967      1.1698079455734802      33.640579705275634
    64   1  9.1848400949734736e-05      4.6796806326824338      33.640579705009216
    65   1       2.026516013682091      5.8496316381023661      34.445355030240933
    66   1  9.0183236149639828e-05      2.3397589508428096      34.445355025954562
    67   1  8.8465986092621079e-05      7.0195817231970246      35.344288693864797
    68   1      2.0265142962368707      3.5097090329336478      35.344288691871121
    69   1  8.7455546670201805e-05      4.6796620728559599      36.096636017570816
    70   1      2.0265132860491861      1.1697893846239771      36.096636018334706
    71   1      2.0265124979096152      5.8496157836892237      36.823222412509139
    72   1  8.6666922116922655e-05      2.3397430999895912      36.823222406060275
