(written by ASE)

48 atoms
1 atom types

0.0      4.0496852345588978  xlo xhi
0.0      4.9598311954860979  ylo yhi
0.0      28.120666825799017  zlo zhi

Atoms # atomic

     1   1      4.0496310700188669     0.11561535387098543    -0.39337384478369758
     2   1      4.0496310700188669      2.5955305124850443    -0.39337384231477557
     3   1      2.0247884527394167      1.6218733871869753     0.82288284440927506
     4   1      2.0247884527394189      4.1017885604580657     0.82288316758170055
     5   1      4.0496310700188696     0.81939787317019741      1.9716607443824201
     6   1      4.0496310700188651      3.2993139596554442      1.9716605999452759
     7   1      2.0247884527394193      2.4764604585580323      3.1381411809642916
     8   1      2.0247884527394158       4.956376145834879      3.1381410549785715
     9   1      4.0496310700188651       1.650957479600816      4.3037668309510586
    10   1      4.0496310700188687      4.1308733973368028      4.3037667635684826
    11   1      2.0247884527394184     0.82531459088325898      5.4707235537149046
    12   1      2.0247884527394175      3.3052294535362643       5.470723708819432
    13   1      4.0496310700188678      2.4797753965380034      6.6367927514187208
    14   1       4.049631070018866      4.9596901329312484      6.6367929743814615
    15   1      2.0247884527394175      1.6543197607069884      7.8028621669500344
    16   1      2.0247884527394175       4.134236058325679      7.8028620221166225
    17   1      4.0496310700188678     0.82867682800084297      8.9698189024029737
    18   1      4.0496310700188669      3.3085921585119928      8.9698189546786224
    19   1      2.0247884527394189      4.9630050947982376      10.135444537978435
    20   1      2.0247884527394167      2.4830893597455779      10.135444677680493
    21   1      4.0496310700188687      1.6602364728098218      11.301924978952217
    22   1      4.0496310700188669      4.1401515578148995      11.301925128321654
    23   1      2.0247884527394175     0.85776094684396165      12.450702882365043
    24   1      2.0247884527394193      3.3376769689634189      12.450702557246546
    25   1      4.0496310700188651      2.3640189769265212      13.666959568150922
    26   1      4.0496310700188678      4.8439350201670264      13.666959570549585
    27   1      2.0247884527394175     0.85776094637518241      14.883216256224006
    28   1      2.0247884527394184        3.33767696942957      14.883216581565859
    29   1      4.0496310700188687       1.660236454708296       16.03199415554608
    30   1      4.0496310700188634      4.1401515759167582      16.031994014580921
    31   1      2.0247884527394207   0.0031738593004594852      17.198474589715151
    32   1      2.0247884527394171      2.4830893997580454      17.198474472027073
    33   1      4.0496310700188642     0.82867687280664437      18.364100249266897
    34   1      4.0496310700188687      3.3085921137070633      18.364100171051899
    35   1      2.0247884527394202      1.6543197309347037      19.531056963107602
    36   1      2.0247884527394158      4.1342360880963849      19.531057125225917
    37   1      4.0496310700188642         2.4797753958433       20.69712638711772
    38   1      4.0496310700188687      4.9596901336235684      20.697126164481517
    39   1      2.0247884527394171     0.82531455997420156      21.863195576085488
    40   1      2.0247884527394215        3.30522948444403      21.863195438780338
    41   1      4.0496310700188669      1.6509575249759973      23.030152320809702
    42   1      4.0496310700188642      4.1308733519628316      23.030152362071238
    43   1       2.024788452739418      2.4764604185381027      24.195777946796937
    44   1      2.0247884527394198  -0.0034550096302562935      24.195778094661417
    45   1       4.049631070018866     0.81939785535796084       25.36225839025732
    46   1       4.049631070018866      3.2993139774681479      25.362258542815891
    47   1      2.0247884527394171      1.6218733865476314      26.511036294093724
    48   1      2.0247884527394193       4.101788561095022      26.511035971316762
