(written by ASE)

48 atoms
1 atom types

0.0      4.0496852345588978  xlo xhi
0.0      4.9598311954860979  ylo yhi
0.0      27.800430804961024  zlo zhi

Atoms # atomic

     1   1      4.0496310103166593    0.085635094534001865    -0.38793221942623807
     2   1      4.0496310103166584      2.5655506922770517    -0.38793221942624945
     3   1      2.0247885124416296      1.3255928934055266     0.76849523885100046
     4   1      2.0247885124416287      3.8055084911485744     0.76849523885099991
     5   1      4.0496309461587714      0.6210456437301245      1.9446556066443221
     6   1      4.0496309461587723      3.1009612414731875      1.9446556066443252
     7   1      2.0247886313870724      2.2458432516825559      3.0811237698177072
     8   1       2.024788631387072       4.725758849425592      3.0811237698176974
     9   1      4.0496308444896032      1.4373233538914802      4.2522452167998122
    10   1      4.0496308444896041       3.917238951634515       4.252245216799805
    11   1      2.0247887109028357     0.60942036080096429      5.4009354693355984
    12   1      2.0247887109028357      3.0893359585440083      5.4009354693355958
    13   1      4.0496307950422343       2.272248887104066      6.5642911797346066
    14   1      4.0496307950422343      4.7521644848471283      6.5642911797346155
    15   1      2.0247887277154506       1.447343245749749       7.716487242170647
    16   1      2.0247887277154502      3.9272588434928113      7.7164872421706523
    17   1      4.0496308118571074     0.63025617430981007      8.8798429525696587
    18   1      4.0496308118571074      3.1101717720528712      8.8798429525696694
    19   1      2.0247886782663671      4.7621843767053962      10.028533205105454
    20   1      2.0247886782663667      2.2822687789623668      10.028533205105465
    21   1      4.0496308913736332      1.4737488811712827      11.199654652087569
    22   1      4.0496308913736332      3.9536644789143143      11.199654652087563
    23   1      2.0247885765975302     0.61863089138065075      12.336122815260941
    24   1      2.0247885765975315      3.0985464891236889      12.336122815260927
    25   1      4.0496310103177002      2.3939992394482927      13.512283183054251
    26   1      4.0496310103177002      4.8739148371913501      13.512283183054263
    27   1      2.0247885124405873      1.1540414405767683      14.668710641331506
    28   1      2.0247885124405882      3.6339570383198243      14.668710641331506
    29   1        4.04963094616076      1.8585886902521633      15.844871009124864
    30   1      4.0496309461607609      4.3385042879952218       15.84487100912486
    31   1      2.0247886313846495     0.23379108229974913      16.981339172298224
    32   1      2.0247886313846517       2.713706680042796      16.981339172298227
    33   1      4.0496308444919258      1.0423109800908437      18.152460619280308
    34   1      4.0496308444919267      3.5222265778338677      18.152460619280319
    35   1      2.0247887109011748      1.8702139731813501      19.301150871816105
    36   1      2.0247887109011753      4.3501295709243806      19.301150871816112
    37   1       4.049630795042841       2.687301044621293       20.46450658221513
    38   1      4.0496307950428401      5.1672166423643162      20.464506582215147
    39   1      2.0247887277160452      1.0322910882325369       21.61670264465117
    40   1      2.0247887277160457      3.5122066859756091      21.616702644651159
    41   1      4.0496308118554554      1.8493781596724777       22.78005835505019
    42   1      4.0496308118554563      4.3292937574155408      22.780058355050173
    43   1      2.0247886782686786      2.6772811527629909      23.928748607585984
    44   1      2.0247886782686781     0.19736555501995573       23.92874860758597
    45   1      4.0496308913712182      1.0058854528110313      25.099870054568065
    46   1      4.0496308913712191      3.4858010505540666      25.099870054568079
    47   1      2.0247885765995117      1.8610034426016662       26.23633821774143
    48   1      2.0247885765995126      4.3409190403447022      26.236338217741448
