(written by ASE)

48 atoms
1 atom types

0.0      4.0496852345588978  xlo xhi
0.0      4.9598311954860979  ylo yhi
0.0      28.134166240523822  zlo zhi

Atoms # atomic

     1   1      4.0496311586823301     0.14149943616354113    -0.39374121505829895
     2   1      4.0496311586823293      2.6214150339065978     -0.3937412150582974
     3   1      2.0247883641156563       1.381457235034989     0.77887277394050269
     4   1      2.0247883641156572      3.8613728327780374     0.77887277394051668
     5   1      4.0496312307932874     0.64016274973001575      1.9818268258363154
     6   1      4.0496312307932856      3.1200783474730591       1.981826825836309
     7   1      2.0247882405853095      2.2632065402506263      3.1259063869548349
     8   1      2.0247882405853095      4.7431221379936748      3.1259063869548309
     9   1      4.0496313271915465      1.4509474843169519      4.3102278010625508
    10   1      4.0496313271915474      3.9308630820599997      4.3102278010625499
    11   1      2.0247881628436071     0.61662784497882595      5.4691623661881161
    12   1      2.0247881628436075      3.0965434427218761      5.4691623661881179
    13   1      4.0496313759093958       2.275270652519255      6.6447082123108476
    14   1      4.0496313759093958      4.7551862502623123      6.6447082123108476
    15   1      2.0247881468141471      1.4443214803344175      7.8075064668331509
    16   1       2.024788146814148      3.9242370780774718      7.8075064668331491
    17   1      4.0496313600106868     0.62304869013187403       8.983052312955941
    18   1      4.0496313600106859      3.1029642878749311      8.9830523129559392
    19   1      2.0247881954359546      4.7485602462797267       10.14198687808169
    20   1      2.0247881954359563      2.2686446485366867      10.141986878081692
    21   1      4.0496312823059579      1.4563855926032618       11.32630829218939
    22   1      4.0496312823059588      3.9363011903463114       11.32630829218939
    23   1      2.0247882918622935     0.59951378538070654       12.47038785330786
    24   1      2.0247882918622939      3.0794293831237556      12.470387853307852
    25   1      4.0496311586818772      2.3381348978187559      13.673341905203614
    26   1      4.0496311586818781      4.8180504955618142      13.673341905203618
    27   1      2.0247883641151572      1.0981770989473205      14.845955894202421
    28   1      2.0247883641151576       3.578092696690359      14.845955894202431
    29   1      4.0496312307946596      1.8394715842522951      16.048909946098235
    30   1      4.0496312307946596      4.3193871819953351      16.048909946098235
    31   1      2.0247882405832476     0.21642779373167181      17.192989507216755
    32   1      2.0247882405832467      2.6963433914747346      17.192989507216758
    33   1      4.0496313271942039       1.028686849665341      18.377310921324472
    34   1       4.049631327194203      3.5086024474084101      18.377310921324462
    35   1      2.0247881628405286      1.8630064890034694      19.536245486450042
    36   1      2.0247881628405291      4.3429220867465359      19.536245486450039
    37   1      4.0496313759126714      2.6842792792060903      20.711791332572759
    38   1      4.0496313759126723      5.1641948769491455      20.711791332572751
    39   1      2.0247881468108893      1.0353128536478937      21.874589587095052
    40   1      2.0247881468108901      3.5152284513909251      21.874589587095063
    41   1       4.049631360013711      1.8565856438504362      23.050135433217871
    42   1      4.0496313600137102       4.336501241593461      23.050135433217882
    43   1      2.0247881954333757      2.6909052831886742      24.209069998343605
    44   1      2.0247881954333762     0.21098968544561186      24.209069998343633
    45   1      4.0496312823079341      1.0232487413790374      25.393391412451308
    46   1      4.0496312823079341      3.5031643391220983      25.393391412451304
    47   1       2.024788291860999      1.8801205486015953      26.537470973569757
    48   1      2.0247882918609972      4.3600361463446564      26.537470973569761
