(written by ASE)

68 atoms
1 atom types

0.0      6.4031151289903283  xlo xhi
0.0      3.8418688751545882  ylo yhi
0.0      33.526226649113141  zlo zhi

Atoms # atomic

     1   1      4.9323483606540854      1.1864596185581415     0.38459282257327582
     2   1     0.54222510489659281      3.1073940561366276   -0.060637228708975741
     3   1      2.5501431891182191      1.1864596185566059    -0.33822229002369009
     4   1      3.0180991256184937      3.1073940561401328     0.96905053491411186
     5   1       5.345381044833962      3.1073940561368962      1.8934667547534372
     6   1     0.88436227237480958      1.1864596185573306      1.4196573056303401
     7   1       1.311056384385024      3.1073940561373683      2.8332863064426794
     8   1      3.3179493229780617      1.1864596185547189      2.3853758649216208
     9   1      3.6824360446377082      3.1073940561386579      3.8070365017350478
    10   1      5.6797113636880052      1.1864596185573366      3.3263334497376675
    11   1      1.6553286419025868      1.1864596185574499      4.2738054026504626
    12   1      2.0233241846245535      3.1073940561363158      5.7041346407739644
    13   1      4.0339512998077769      1.1864596185569989      5.2352782643320008
    14   1      6.0567049598743807      3.1073940561368207      4.7507719620139008
    15   1      6.4091855953778012      1.1864596185582994      6.1835937343915175
    16   1       2.379167657938241      1.1864596185591392      7.1355370109002916
    17   1      4.4006013026807578      3.1073940561363522      6.6606451191922664
    18   1      4.7564447750704408      1.1864596185591023      8.0920474925831591
    19   1     0.37058336447554951      3.1073940561354649      7.6125883968088921
    20   1     0.72306400160181883      1.1864596185596221       9.045410175488275
    21   1      2.7458176580124487       3.107394056134253      8.5609038723440136
    22   1      5.1244403188205867      3.1073940561346971      9.5223767257612852
    23   1      5.4687125736355666      1.1864596185600789      10.962895804572279
    24   1      1.1000576127829247       3.107394056134587      10.469848655721792
    25   1      3.0973329117408093      1.1864596185613279      9.9891456169257307
    26   1       3.461819645165094      3.1073940561321374      11.410806284991661
    27   1      5.8954065719916127      3.1073940561346474      12.376524958152411
    28   1      1.4343879074246724      1.1864596185596052      11.902715369173892
    29   1      1.8474206371760638      3.1073940561354481      13.411589314798023
    30   1      3.7616699061908081      1.1864596185626644      12.827131737473533
    31   1       6.237543834550336      1.1864596185593095      13.856819350167411
    32   1     0.24167684485329924      3.1073940561355293      15.279647727977764
    33   1      2.3373301401463245      1.1864596185586882      15.279647727977766
    34   1      4.2296257889708402      3.1073940561339888      14.134403680401105
    35   1      4.2296257889708393      3.1073940561355595      16.424891775554418
    36   1    -0.16557129443999383      1.1864596185588203      16.702476105788136
    37   1      1.8474206371760664      3.1073940561358202      17.147706141157506
    38   1      3.7616699061908032      1.1864596185591594      17.732163718482017
    39   1      1.4343879074246679      1.1864596185587197      18.656580086781638
    40   1      5.8954065719916118       3.107394056135683       18.18277049780313
    41   1      5.4687125736355675      1.1864596185587948      19.596399651383244
    42   1       3.461819645165094      3.1073940561354183      19.148489170963863
    43   1      1.1000576127829338       3.107394056135738      20.089446800233734
    44   1     0.72306400160182172      1.1864596185587131      21.513885280467271
    45   1       5.124440318820584      3.1073940561357385      21.036918730194252
    46   1      3.0973329117407991      1.1864596185589136      20.570149839029806
    47   1      2.7458176580124438      3.1073940561357052      21.998391583611497
    48   1     0.37058336447554913      3.1073940561358353      22.946707059146625
    49   1      4.7564447750704497      1.1864596185586633      22.467247963372358
    50   1      4.4006013026807596       3.107394056135929      23.898650336763282
    51   1       2.379167657938233      1.1864596185586573      23.423758445055249
    52   1      2.0233241846245593      3.1073940561359374      24.855160815181559
    53   1   0.0060704663874690673      1.1864596185585685       24.37570172156401
    54   1      4.0339512998077769      1.1864596185584193      25.324017191623522
    55   1        3.68243604463771      3.1073940561362203      26.752258954220483
    56   1      1.6553286419025817      1.1864596185584542      26.285490053305075
    57   1      6.0567049598743772       3.107394056135989      25.808523493941632
    58   1      5.6797113636880132      1.1864596185584484      27.232962006217871
    59   1       3.317949322978063      1.1864596185580898      28.173919591033933
    60   1       1.311056384385022      3.1073940561360902      27.726009149512851
    61   1     0.88436227237480958      1.1864596185583789       29.13963815032519
    62   1      5.3453810448339683      3.1073940561360174      28.665828701202095
    63   1       4.932348360654081      1.1864596185585221      30.174702633382257
    64   1      3.0180991256184946      3.1073940561365005      29.590244921041425
    65   1     0.54222510489659326      3.1073940561361275      30.619932684664501
    66   1      0.1349770052922328      1.1864596185582197      32.042761052534331
    67   1      4.4424387983681903      3.1073940561359863      32.042761052534338
    68   1      2.5501431891182222      1.1864596185582383      30.897517745979222
