(written by ASE)

68 atoms
1 atom types

0.0      6.4031151289903283  xlo xhi
0.0      3.8418688751545882  ylo yhi
0.0      33.173297071276899  zlo zhi

Atoms # atomic

     1   1      4.8094120353566305      1.3043350872977988     0.31889332749716148
     2   1     0.45581672223879266      3.1870016046000242    -0.05533755248999446
     3   1      2.3986981185985319      1.5090019109035633    -0.34568087501816541
     4   1      2.9123378306125085       3.354843520849712      0.9168659862085573
     5   1      5.2190468820178513      3.2480368108497943      1.8474396775542312
     6   1      0.7387606246974302      1.3047318130637906      1.3982170647563403
     7   1      1.1725496966729805      3.2513279490174276      2.8023156284331914
     8   1      3.1897208605731708      1.3859141221755737      2.3218717767074595
     9   1      3.5372656939011216       3.283381092036179      3.7449448576246103
    10   1      5.5399814031247283      1.3384528899561352      3.2965731822403068
    11   1      1.5122108522040349      1.3414229185414577      4.2279455252410676
    12   1      1.8620027201708476      3.2664682098898603      5.6531716418698963
    13   1      3.8750242411004612      1.3529997883506906      5.1827042126817604
    14   1       5.900077577434673      3.2638962081939797      4.7083640841102063
    15   1      6.2443474646753812      1.3450155745829546      6.1315229600855936
    16   1      2.2063630480579022      1.3474056821609635      7.0813757834746669
    17   1      4.2260124945144302      3.2701750277644863      6.6076830240665894
    18   1      4.5734059127964022      1.3474056843015105      8.0331021647427612
    19   1     0.18832691526994191      3.2665169291522416      7.5572389748563698
    20   1     0.53542149376870662      1.3450155755820377      8.9829549902685013
    21   1      2.5537564649885205      3.2701750300567842      8.5067949245576315
    22   1      4.9177662407359062      3.2664682049942573      9.4613063083605393
    23   1      5.2675581105284035      1.3414229315516037      10.886532421415247
    24   1     0.87969138171389449      3.2638962054455689      10.406113867207957
    25   1      2.9047447154487891       1.352999781664824      9.9317737472826568
    26   1      3.2425032596753809      3.2833811156302888      11.369533081102725
    27   1      5.6072192619189121      3.2513279181292414      12.312162307298006
    28   1      1.2397875817313699       1.338452895306472      11.817904732620471
    29   1      1.5607220853737132      3.2480368030121793      13.267038274110122
    30   1      3.5900481098396466      1.3859140551224778      12.792606223876804
    31   1       6.041008150182102      1.3047318807550004        13.7162610983682
    32   1   -0.079162892160970666      3.1870015662427749      15.169815456759682
    33   1       1.970356971954103      1.3043350878478142      14.795584630359613
    34   1      3.8674311608600682      3.3548436759725209      14.197612079592838
    35   1      4.3810710552197314      1.5090013395318522      15.460157442542631
    36   1     0.21490892734123826      1.1888709616282434      16.559553146324355
    37   1      2.2110791090761839      3.0722966732693786      16.619575751008888
    38   1      4.0707145143346732     0.95830877542684978      17.613353223180972
    39   1      1.7390671885419293      1.0737409144962973      18.406338345613218
    40   1      6.0619987588608009      3.0431738728943118      17.881399754254684
    41   1      5.7467355897297159      1.0855856685231711       19.36333483187461
    42   1      3.6203409779921523      2.9300005146482397      18.926256156488805
    43   1       1.271501640386248      2.9878711185049434      19.858521694994351
    44   1      0.9284967453861751      1.0623543843432988      21.291536582195594
    45   1       5.314982976103285      2.9888123101248656       20.80459370884634
    46   1      3.3161861565917015      1.0380056307395378      20.346444491482533
    47   1      2.9336293714843875      2.9714650874482125      21.759721981946615
    48   1     0.55485979973897626      2.9813964749903032      22.713692257907024
    49   1      4.9536636862575136      1.0611689157514914      22.241785029165968
    50   1      4.5798720908007002      2.9791946546493349      23.667744273562551
    51   1      2.5698110823769795      1.0556516744574616      23.192024779570541
    52   1      2.1998968703230859      2.9791946512300598      24.620030748099971
    53   1     0.18832691472911403      1.0598932488994786      24.143887510503504
    54   1      4.2099578779179705      1.0556516701338237      25.095750233601198
    55   1      3.8461395853190132       2.971465105172014      26.528053047321677
    56   1      1.8261052746875392      1.0611689233070174      26.045989994945636
    57   1      6.2249091598787265      2.9813964714912582      25.574082761985647
    58   1      5.8512722333288441      1.0623543919520417      26.996238462317283
    59   1      3.4635828080624687      1.0380055713860197      27.941330502247727
    60   1      1.4647859869201483       2.988812294833405      27.483181320671243
    61   1      1.0330332304084977      1.0855856932854062       28.92444003914261
    62   1      5.5082673238577327      2.9878711121942123      28.429253325388828
    63   1      5.0407018672116477      1.0737409077022479      29.881436640260386
    64   1      3.1594280283142724      2.9300006855995688      29.361518708712065
    65   1     0.71777021861986789      3.0431738939642097      30.406375297441723
    66   1      0.1617449754216968      1.1888709509278763      31.728221904991422
    67   1      4.5686897737917924      3.0722966924637904      31.668199267713941
    68   1      2.7090542670892583     0.95830815264003077      30.674423162783455
