(written by ASE)

42 atoms
1 atom types

0.0      4.0496852345588978  xlo xhi
0.0       4.748676871444693  ylo yhi
0.0      25.872158010178712  zlo zhi

Atoms # atomic

     1   1      4.0496052050642897     0.13208721128691853    -0.37569675292267768
     2   1      2.0247625877848408      1.5969403101886892    -0.25406351547951955
     3   1      4.0496052050642897      2.6629917584718616      0.7992250357843137
     4   1      2.0247625877848412      4.0734998869722725      1.0865495289412694
     5   1      4.0496052050642897      0.5013832347912327      1.9619177271492969
     6   1      2.0247625877848425      1.8672791426670872      2.3776414345346839
     7   1      4.0496052050642906      3.1048797021128851      3.1377622969906627
     8   1      2.0247625877848421      4.4373245577143656      3.6385036766649024
     9   1      4.0496052050642906     0.95896645833093797      4.3192270383992426
    10   1      2.0247625877848394      2.2692954185389871      4.8856029503429248
    11   1      4.0496052050642914      3.5613927999719528       5.507490713369509
    12   1      2.0247625877848403      0.1048129378903013      6.1293775864449884
    13   1      4.0496052050642914      1.4151419049484442      6.6957532645506399
    14   1      2.0247625877848399      2.6854609384268775      7.3764768983703917
    15   1      4.0496052050642906      4.0179054146518673      7.8772171684805334
    16   1      2.0247625877848412     0.50682937584477361      8.6373390843562667
    17   1      4.0496052050642906      1.8727254203556765      9.0530636407001577
    18   1      2.0247625877848412      3.0492852880940884      9.9284310258273489
    19   1      4.0496052050642888      4.4597936445132405      10.215756971226046
    20   1      2.0247625877848416     0.77716809194154168      11.269044089942373
    21   1      4.0496052050642906      2.2420213011758303      11.390675841186093
    22   1      4.0496052050642914      4.6163596863753433      12.560382300187062
    23   1      2.0247625877848412      3.1515065938435103      12.682015489354729
    24   1 -8.0029494606414055e-05      2.0854551370054151      13.735304085439324
    25   1      2.0247625877848399      0.6749470126594459      14.022628532458622
    26   1 -8.0029494605829928e-05       4.247063667145432      14.897996700286296
    27   1      2.0247625877848399      2.8811677514564509      15.313720440129716
    28   1 -8.0029494606161992e-05      1.6435672083414115      16.073841268660619
    29   1      2.0247625877848399     0.31112234014076084       16.57458268409777
    30   1 -8.0029494605689727e-05      3.7894804392247132      17.255306053761458
    31   1      2.0247625877848421      2.4791514854602164      17.821681953515487
    32   1 -8.0029494607708078e-05      1.1870540904284466      18.443569747244798
    33   1      2.0247625877848434       4.643633965950615      19.065456589747455
    34   1 -8.0029494608653245e-05      3.3333049931644796      19.631832278236132
    35   1      2.0247625877848421      2.0629859591256903      20.312555905878291
    36   1  -8.002949460838996e-05     0.73054149600783502      20.813296138846354
    37   1      2.0247625877848408      4.2416175183164491      21.573418089818507
    38   1 -8.0029494606464322e-05      2.8757214810249492      21.989142616105656
    39   1      2.0247625877848412       1.699161611873371      22.864510029357703
    40   1 -8.0029494607444833e-05     0.28865325087190463      23.151836023532848
    41   1      2.0247625877848412      3.9712788122105285      24.205123094855551
    42   1 -8.0029494607306313e-05      2.5064255964510456      24.326754891269339
