(written by ASE)

72 atoms
1 atom types

0.0      4.0496852345588978  xlo xhi
0.0      7.0142609609931217  ylo yhi
0.0      30.177072232387488  zlo zhi

Atoms # atomic

     1   1       2.024906737295662      3.5070034370065737    -0.56205587718008265
     2   1      4.0497493545751109      7.0141339175031909    -0.56205587718008287
     3   1      4.0497493545751109       2.337959937372645     0.57271266452883152
     4   1      2.0249067372956624      5.8450904178692102     0.57271266452942804
     5   1      4.0497493545751118      4.6760468974369997      1.0673282207246426
     6   1       2.024906737295662      1.1689164169403599      1.0673282207246555
     7   1       2.024906737295662      3.5070033839450141      1.9789833763894888
     8   1      4.0497493545751109      7.0141338644415212      1.9789833763894895
     9   1        4.04974935457511      2.3379598520948117      2.9216742062883236
    10   1      2.0249067372956615      5.8450903325913792      2.9216742062880332
    11   1       2.024906737295662      1.1689163384907304      3.6463555426224805
    12   1      4.0497493545751109      4.6760468189872597      3.6463555426224961
    13   1      2.0249067372956615      3.5070033105676712      4.4873535922480308
    14   1      4.0497493545751109      7.0141337910642481       4.487353592248029
    15   1      4.0497493545751109      2.3379597948499455      5.3512153839152061
    16   1       2.024906737295662      5.8450902753465019      5.3512153839152878
    17   1        4.04974935457511      4.6760467614575596      6.1441479210692886
    18   1      2.0249067372956615      1.1689162809609959      6.1441479210692904
    19   1       2.024906737295662      3.5070032495963464      6.9822121786870976
    20   1  6.4120016212727574e-05      7.0141337300929045      6.9822121786871003
    21   1       2.024906737295662      5.8450902182317002      7.8202764257316835
    22   1   6.412001621279573e-05      2.3379597377351398      7.8202764257316915
    23   1  6.4120016212982443e-05      4.6760467043427463      8.6132090400510251
    24   1      2.0249067372956615      1.1689162238461841      8.6132090400510481
    25   1  6.4120016212770671e-05      7.0141336691215876      9.4770707774526652
    26   1       2.024906737295662      3.5070031886250206       9.477070777452667
    27   1       2.024906737295662      5.8450901607019725      10.318068827818191
    28   1   6.412001621288603e-05       2.337959680205401      10.318068827818195
    29   1  6.4120016212896046e-05      4.6760466470978947      11.042749932375949
    30   1       2.024906737295662       1.168916166601337      11.042749932375839
    31   1  6.4120016212840711e-05      7.0141335957442408      11.985440969555283
    32   1       2.024906737295662       3.507003115247699      11.985440969555285
    33   1       2.024906737295662      5.8450900822523089      12.897096145583713
    34   1  6.4120016213018588e-05      2.3379596017557787      12.897096145583708
    35   1  6.4120016213065425e-05      4.6760465618200104      13.391712158647767
    36   1       2.024906737295662      1.1689160813234496      13.391712158647978
    37   1  6.4120016212790553e-05      7.0141335426826821      14.526480239013665
    38   1      2.0249067372956615      3.5070030621860986      14.526480239013667
    39   1      2.0249067372956615      1.1689160813234489      15.661248319379341
    40   1  6.4120016212926946e-05      4.6760465618200104      15.661248319379567
    41   1  6.4120016212768164e-05      2.3379596017557778       16.15586433244362
    42   1       2.024906737295662      5.8450900822523097       16.15586433244362
    43   1  6.4120016212868222e-05      7.0141335957442408      17.067519508472046
    44   1       2.024906737295662       3.507003115247699      17.067519508472046
    45   1  6.4120016212844343e-05      4.6760466470978956      18.010210545651383
    46   1       2.024906737295662      1.1689161666013366      18.010210545651489
    47   1       2.024906737295662      5.8450901607019734      18.734891650209139
    48   1  6.4120016212880244e-05      2.3379596802054001      18.734891650209136
    49   1  6.4120016212960596e-05      7.0141336691215876      19.575889700574663
    50   1       2.024906737295662      3.5070031886250201      19.575889700574663
    51   1       2.024906737295662      1.1689162238461845      20.439751437976273
    52   1  6.4120016213109173e-05      4.6760467043427454      20.439751437976302
    53   1  6.4120016212852014e-05      2.3379597377351402      21.232684052295635
    54   1       2.024906737295662      5.8450902182317011      21.232684052295649
    55   1  6.4120016212949389e-05      7.0141337300929054      22.070748299340227
    56   1       2.024906737295662      3.5070032495963459      22.070748299340231
    57   1  6.4120016213103223e-05      4.6760467614575614       22.90881255695804
    58   1      2.0249067372956615      1.1689162809609948      22.908812556958036
    59   1       2.024906737295662      5.8450902753465002      23.701745094112049
    60   1  6.4120016212994884e-05      2.3379597948499473      23.701745094112123
    61   1      2.0249067372956624      3.5070033105676708        24.5656068857793
    62   1  6.4120016212968674e-05      7.0141337910642498      24.565606885779296
    63   1       2.024906737295662      1.1689163384907304      25.406604935404847
    64   1  6.4120016213111395e-05      4.6760468189872606      25.406604935404825
    65   1       2.024906737295662      5.8450903325913792      26.131286271739302
    66   1  6.4120016213008532e-05      2.3379598520948126      26.131286271739004
    67   1  6.4120016212887996e-05      7.0141338644415239      27.073977101637844
    68   1       2.024906737295662      3.5070033839450123      27.073977101637844
    69   1  6.4120016212914179e-05      4.6760468974369997      27.985632257302679
    70   1       2.024906737295662      1.1689164169403596      27.985632257302679
    71   1       2.024906737295662      5.8450904178692076        28.4802478134979
    72   1  6.4120016212907904e-05      2.3379599373726476      28.480247813498497
