(written by ASE)

68 atoms
1 atom types

0.0      6.4031151289903283  xlo xhi
0.0      3.8418688751545882  ylo yhi
0.0      32.819195334101252  zlo zhi

Atoms # atomic

     1   1      4.9453652916634381      1.2778073111609567     0.42608117676924689
     2   1     0.55904747255444931      3.1618780269573259   -0.029963911649835598
     3   1       2.571747633558489       1.295148474113103    -0.32447743788779199
     4   1      2.9929796208720649      3.2217427814420612     0.97625507248752885
     5   1      5.3199218900122887      3.2223075211102601      1.8969027074962561
     6   1      0.8839032004043671      1.2806228584972315      1.4405755915505232
     7   1      1.2740131261784913      3.2329863875847216      2.8331593473616463
     8   1       3.285467742335646      1.3181278318457199      2.3935033022481518
     9   1      3.6324358857806933      3.2591401881603512      3.7925058932238409
    10   1      5.6364037679719425      1.3249298766019788       3.313319887754222
    11   1      1.5990943493298386      1.3410862362014366      4.2573615576143196
    12   1      1.9486798045299254      3.2900771413790419      5.6688283671717743
    13   1      3.9664868598519338      1.3598547884710726      5.2040427409941241
    14   1      5.9935017822544312      3.2693393698532223      4.7242775401651995
    15   1      6.3281002267881945      1.3713821395542483       6.141219722206797
    16   1      2.2872596811766708        1.39848888771326      7.0835851272409061
    17   1      4.3120741148432602      3.3027266275138301      6.6119751724701601
    18   1       4.649218635099758      1.4027790033792742      8.0251535451126124
    19   1     0.27104413616230899      3.3137067656079067       7.552849524195727
    20   1     0.61047835841821774      1.4114510317579996      8.9688813461803889
    21   1       2.632050793914968      3.3525480966395325      8.4953144690397089
    22   1      4.9961863401948046      3.3411505418789811      9.4319619606659195
    23   1        5.33193815700269       1.430666108890104      10.846290199869275
    24   1     0.95398503813520086      3.3460074103920681      10.381147191484708
    25   1      2.9676479816774703      1.4732124030603049      9.9117958652650291
    26   1      3.3278052314255588      3.4520731974986099       11.31255702628043
    27   1      5.6653406726137261      3.3464006238257005      12.255641788496764
    28   1      1.2920757428242473      1.4290596993105265      11.811555623835064
    29   1      1.6741484183411703      3.3399764589529974      13.165412527064619
    30   1      3.6530941571482396      1.6221964297348666      12.748535330471078
    31   1      5.9657319539345437      1.3793962303290004      13.667702673326065
    32   1     0.13912464131364663      3.1886641114062573      14.959585976639422
    33   1      2.0837350219489443      1.3605271386570719      14.754407402894996
    34   1      3.9161666944184272       3.687727297302986      14.184931032992187
    35   1      4.4103959944570557      2.1644422663612608      15.676424499516061
    36   1     0.11705149055931473      1.1224733494124961      16.361760647206488
    37   1      2.0472627931119458      2.9554273590948594      16.581412828405906
    38   1      3.8649179199465351     0.63568808117827302      17.149971621249378
    39   1      1.6060281784940595     0.97401423296603939      18.170626287045412
    40   1      5.8973108693246488      2.9328137833422763      17.653768603776836
    41   1      5.5687521742978889     0.96757746972970904      19.069416241404589
    42   1      3.5722053069436659      2.6955592047001917      18.585902497270755
    43   1      1.1922936693389472      2.8860469475726154      19.519654236921362
    44   1      0.8300979709480355     0.96977827047324283      20.950177619629979
    45   1       5.219096079006607      2.8844412764540244      20.484740361822066
    46   1      3.2241560794532766     0.86396822011191488      20.023005274615091
    47   1      2.8387525305404062      2.8427222919982023      21.422849845012642
    48   1       0.468820508885049      2.9047143653406464      22.365887775196526
    49   1      4.8609500885150867     0.97436635447418285      21.901564300209305
    50   1      4.4940656474844234      2.9126828342476272      23.309874909455552
    51   1      2.4784498021356676     0.96367571259890483      22.839477570633345
    52   1      2.1161843777992142      2.9185411285372016      24.255758900341782
    53   1     0.10425763137700111      1.0026417290219101      23.782810720102582
    54   1      4.1290999047379442      1.0123155115954192      24.719369139343868
    55   1       3.772169083771586      2.9542735897084049      26.131278305902566
    56   1      1.7453310533837214      1.0282772802736073      25.671781344004636
    57   1      6.1493438681115995      2.9452101179510644      25.199235670291181
    58   1       5.769094177943491      1.0471013652728296      26.610287448373288
    59   1      3.4076296214268678      1.0532029249981798      27.531659993036563
    60   1      1.3992013759401316      2.9797769956259885       27.10038412624807
    61   1     0.97657872451849781      1.0917246555741058      28.497879216052539
    62   1      5.4322874868695177      2.9910594194907474      28.020418089433861
    63   1      5.0110799587819788      1.0933543515307935      29.495880300613674
    64   1      3.0947361815338383      2.9918917589475682      28.953647998352388
    65   1     0.61787679012322183      3.0531096361690917      29.973372199016591
    66   1     0.14532368573642782      1.1870088666956424      31.378148239444286
    67   1      4.4401479103847796      3.1087243418148782      31.393692559135168
    68   1      2.6355958961182702      1.0772302495644972       30.25853835654614
