(written by ASE)

42 atoms
1 atom types

0.0      4.0496852345588978  xlo xhi
0.0       4.748676871444693  ylo yhi
0.0      25.733416821879803  zlo zhi

Atoms # atomic

     1   1      4.0174066099373835    0.019505758862803219     -0.3893849669434406
     2   1      1.9845789118330224      1.4756902226982667    -0.15200508855672298
     3   1      3.9933651433032371      2.6208596619417035     0.80151557922674288
     4   1      1.9750775484096217      4.0101803624054853      1.1423156820309237
     5   1      3.9993353279379442     0.50977702577219541      1.9059791165786921
     6   1      1.9732150569280091      1.8384629146079654      2.4162841204257863
     7   1      3.9987250334437077      3.1231506740514647       3.103736715430522
     8   1      1.9737683343082781      4.4259892872424444      3.6361781357886138
     9   1      3.9984875476323802     0.96592646316156772      4.2824998135367416
    10   1      1.9737221678284449      2.2672829845640265       4.869848218675207
    11   1      3.9985704012117704      3.5613926677651655      5.4779559868664398
    12   1      1.9737221678284453     0.10682547952160654      6.0860637550576753
    13   1      3.9984875476323798      1.4081820009240595      6.6734121601961505
    14   1       1.973768334308279      2.6967960482878777      7.3197338379442707
    15   1      3.9987250334437046      3.9996346614788663      7.8521752583023607
    16   1      1.9732150569280109     0.53564554947766829      8.5396278533070973
    17   1       3.999335327937942      1.8643314383134266      9.0499328571541895
    18   1      1.9750775484096248        3.11260497312484      9.8135962917019626
    19   1      3.9933651433032358      4.5019256735886257      10.154396394506142
    20   1      1.9845789118330253     0.89841824138736226      11.107917062289614
    21   1      4.0174066099373755      2.3546027052228267      11.345296940676334
    22   1      4.0818038001871333      4.7289411409449906      12.477323443996822
    23   1       2.064946263742748      3.2727566771098466       12.71470332238281
    24   1     0.05616003225638902      2.1275872378655816      13.668223990166327
    25   1      2.0744476271758501     0.73826653740255943      14.009024092971073
    26   1    0.050189847612693822      4.2386698740362858      14.772687527518666
    27   1      2.0763101186660666      2.9099839851999967      15.282992531365771
    28   1    0.050800142098860315      1.6252962257562651      15.970445126370405
    29   1      2.0757568412908451     0.32245761256554611      16.502886546728451
    30   1    0.051037627906224355      3.7825204366464829      17.149208224476695
    31   1      2.0758030077732594      2.4811639152439695      17.736556629615102
    32   1    0.050954774325206877      1.1870542320428197      18.344664397806348
    33   1      2.0758030077732244      4.6416214202863539      18.952772165997594
    34   1    0.051037627906290906      3.3402648988838344      19.540120571135997
    35   1      2.0757568412907532      2.0516508515200864      20.186442248884251
    36   1    0.050800142098970089     0.74881223832937549      20.718883669242299
    37   1      2.0763101186659476      4.2128013503303272      21.406336264246939
    38   1    0.050189847612799376       2.884115461494031      21.916641268094025
    39   1      2.0744476271757533      1.6358419266830686      22.680304702641617
    40   1    0.056160032256454363     0.24652122622005385       23.02110480544636
    41   1      2.0649462637427054      3.8500286584204786      23.974625473229882
    42   1    0.032118565628258308      2.3938441945853284      24.212005351615876
