(written by ASE)

72 atoms
1 atom types

0.0      4.0496852345588978  xlo xhi
0.0      7.0142609609931217  ylo yhi
0.0      30.061539474328129  zlo zhi

Atoms # atomic

     1   1      2.0249067387721449      3.5070033755783707    -0.55990404928678983
     2   1       4.049749353098627      7.0141338560749293    -0.55990404928679416
     3   1      4.0497493211655922      2.3379599266228852     0.58508069237005278
     4   1      2.0249067707051798      5.8450904071194492     0.58508069237008442
     5   1      4.0497492793522962      4.6760468774117969      1.1301779254721172
     6   1      2.0249068125184726      1.1689163969152216      1.1301779254721138
     7   1      2.0249068435806845      3.5070033718015283      2.0243535277297746
     8   1      4.0497492482900892      7.0141338522980758      2.0243535277297724
     9   1      4.0497492113982156      2.3379598585787136      2.9122395563270778
    10   1      2.0249068804725563      5.8450903390752718       2.912239556327048
    11   1      2.0249069136631879      1.1689163431801946       3.653043829821486
    12   1      4.0497491782075841      4.6760468236767494      3.6530438298214878
    13   1      2.0249069316248112       3.507003309709614       4.495733671934401
    14   1      4.0497491602459599       7.014133790206178      4.4957336719344019
    15   1      4.0497491382573383      2.3379597968347761      5.3333847134656214
    16   1      2.0249069536134336      5.8450902773313347      5.3333847134656267
    17   1       4.049749126512368      4.6760467629613389      6.1254664597483988
    18   1      2.0249069653584035      1.1689162824647839      6.1254664597484085
    19   1      2.0249069656185155      3.5070032495963432      6.9554808192948601
    20   1  6.3891693359637217e-05       7.014133730092917      6.9554808192948672
    21   1      2.0249069653584151      5.8450902167279217       7.785495178841324
    22   1  6.3891953458524551e-05      2.3379597362313502      7.7854951788413098
    23   1  6.3903698419173028e-05      4.6760467023579304      8.5775769251241094
    24   1      2.0249069536134545      1.1689162218613542      8.5775769251240792
    25   1  6.3925687034076408e-05      7.0141336699796328      9.4152279666553085
    26   1      2.0249069316248383      3.5070031894830946      9.4152279666553245
    27   1      2.0249069136632194      5.8450901560124944       10.25791780876823
    28   1  6.3943648654831881e-05      2.3379596755159571      10.257917808768244
    29   1   6.397683928612466e-05      4.6760466406139756      10.998722082262631
    30   1      2.0249068804725887       1.168916160117434      10.998722082262686
    31   1  6.4013731164187896e-05      7.0141336078877554       11.88660811085995
    32   1      2.0249068435807089      3.5070031273911613      11.886608110859941
    33   1      2.0249068125184948      5.8450901022774842      12.780783713117605
    34   1  6.4044793379212735e-05       2.337959621780894      12.780783713117595
    35   1  6.4086606684350377e-05      4.6760465725698115      13.325880946219677
    36   1        2.02490677070519      1.1689160920732484      13.325880946219625
    37   1  6.4118539728893629e-05      7.0141336041108895       14.47086568787652
    38   1      2.0249067387721453      3.5070031236143291      14.470865687876524
    39   1      2.0249067132381993      1.1689160920731245      15.615850429533225
    40   1  6.4144073674304573e-05      4.6760465725696809      15.615850429533179
    41   1  6.4175449124249389e-05      2.3379596217818568      16.160947662634854
    42   1      2.0249066818627504      5.8450901022784301       16.16094766263485
    43   1  6.4199128314261343e-05      7.0141336078890966      17.055123264892366
    44   1      2.0249066581835571      3.5070031273925224      17.055123264892373
    45   1  6.4226922069856711e-05      4.6760466406083223      17.943009293487201
    46   1      2.0249066303898062      1.1689161601117666      17.943009293487179
    47   1      2.0249066053483098      5.8450901560152646      18.683813566987414
    48   1   6.425196356298818e-05      2.3379596755187033      18.683813566987411
    49   1   6.426558154104684e-05      7.0141336699825017      19.526503409099405
    50   1      2.0249065917303319      3.5070031894859444      19.526503409099416
    51   1      2.0249065751466251      1.1689162218608879      20.364154450631553
    52   1   6.428216524943266e-05       4.676046702357441       20.36415445063156
    53   1  6.4291036919295825e-05      2.3379597362282927      21.156236196913095
    54   1      2.0249065662749546      5.8450902167248389      21.156236196913095
    55   1  6.4291254335864569e-05      7.0141337300929045      21.986250556458927
    56   1      2.0249065660575392      3.5070032495963548      21.986250556458906
    57   1  6.4291036911059223e-05      4.6760467629644209      22.816264916004755
    58   1      2.0249065662749626       1.168916282467843      22.816264916004787
    59   1      2.0249065751466402      5.8450902773318276      23.608346662286294
    60   1  6.4282165232596315e-05      2.3379597968352415      23.608346662286326
    61   1      2.0249065917303528      3.5070033097067426      24.445997703818481
    62   1  6.4265581521190057e-05      7.0141337902033296      24.445997703818449
    63   1      2.0249066053483333      1.1689163431774447      25.288687545930433
    64   1  6.4251963540737817e-05      4.6760468236739827      25.288687545930465
    65   1      2.0249066303898258      5.8450903390809215      26.029491819430696
    66   1  6.4226922045665789e-05      2.3379598585843859       26.02949181943065
    67   1  6.4199128297383527e-05      7.0141338522967134      26.917377848025499
    68   1      2.0249066581835771      3.5070033718001841      26.917377848025481
    69   1  6.4175449109883317e-05      4.6760468774108457      27.811553450283014
    70   1      2.0249066818627632      1.1689163969142637      27.811553450283018
    71   1      2.0249067132382055      5.8450904071195762      28.356650683384636
    72   1  6.4144073667588456e-05      2.3379599266230158      28.356650683384679
