(written by ASE)

72 atoms
1 atom types

0.0      4.0496852345588978  xlo xhi
0.0      7.0142609609931217  ylo yhi
0.0      30.459798717092291  zlo zhi

Atoms # atomic

     1   1      2.0249067372956602      3.5070033458114485    -0.56732173203332414
     2   1      4.0497493545751091      7.0141340096224543    -0.56732173203332337
     3   1      4.0497493545751082      2.3379599061899592     0.59730130924119029
     4   1      2.0249067372956606       5.845090462275496     0.59730310953927823
     5   1      4.0497493545751091      4.6760471054923496      1.1377638317789278
     6   1      2.0249067372956602      1.1689161931580314      1.1377637930728519
     7   1      2.0249067372956606      3.5070034949703306      2.0438444812963907
     8   1      4.0497493545751091      7.0141337431002588      2.0438444024186451
     9   1      4.0497493545751082      2.3379598927828833      2.9605359128122655
    10   1      2.0249067372956602      5.8450903188783565      2.9605348512197742
    11   1      2.0249067372956602      1.1689164473444578       3.700278265421959
    12   1      4.0497493545751091      4.6760467224814661      3.7002782227609865
    13   1      2.0249067372956602      3.5070032520054686       4.555989130679662
    14   1      4.0497493545751091      7.0141338545669489      4.5559892022804238
    15   1      4.0497493545751091      2.3379597800989025       5.407795466416407
    16   1      2.0249067372956606      5.8450902992167943      5.4077957827075549
    17   1      4.0497493545751091      4.6760467951697295      6.2058952365604423
    18   1      2.0249067372956606      1.1689162506040334      6.2058951509939924
    19   1      2.0249067372956606      3.5070032815481618       7.047627974513099
    20   1  6.4120016211578645e-05      7.0141336981410536       7.047627919963233
    21   1      2.0249067372956606      5.8450901842814087      7.8893606581737794
    22   1   6.412001621147631e-05      2.3379597683301179      7.8893607432235617
    23   1       6.41200162115e-05      4.6760466804020258      8.6874601101976854
    24   1      2.0249067372956602      1.1689162386675329      8.6874604296234672
    25   1  6.4120016211136657e-05      7.0141337282484733      9.5392667640835196
    26   1      2.0249067372956606      3.5070031245574333      9.5392666919081286
    27   1      2.0249067372956602      5.8450902582508455      10.394977671817099
    28   1  6.4120016211219015e-05      2.3379595703083758      10.394977628953088
    29   1  6.4120016211164209e-05      4.6760466610705791      11.134721048758257
    30   1      2.0249067372956602      1.1689161256533291      11.134719976164364
    31   1  6.4120016211211684e-05      7.0141334835183065      12.051411412786107
    32   1      2.0249067372956602      3.5070032377895002      12.051411492452551
    33   1      2.0249067372956606      5.8450898719500666      12.957492062507072
    34   1  6.4120016210861012e-05      2.3379598277851681      12.957492101595344
    35   1  6.4120016211566218e-05      4.6760465170215992       13.49795277555871
    36   1      2.0249067372956597      1.1689161128987882      13.497954594602559
    37   1   6.412001621121247e-05      7.0141336348328416      14.662577626512835
    38   1      2.0249067372956602      3.5070029691125537       14.66257762651283
    39   1      2.0249067372956602      1.1689161128987893      15.827200658423104
    40   1  6.4120016211164304e-05      4.6760465170215975      15.827202477466956
    41   1  6.4120016211147892e-05      2.3379598277851694      16.367663151430325
    42   1      2.0249067372956597      5.8450898719500648      16.367663190518591
    43   1  6.4120016210985709e-05      7.0141334835183056       17.27374384023955
    44   1      2.0249067372956597      3.5070032377895015      17.273743760573122
    45   1  6.4120016210847527e-05        4.67604666107058      18.190434204267405
    46   1      2.0249067372956597      1.1689161256533285      18.190435276861294
    47   1      2.0249067372956597      5.8450902582508473      18.930177581208557
    48   1  6.4120016210864102e-05      2.3379595703083749      18.930177624072577
    49   1  6.4120016210887534e-05      7.0141337282484741      19.785888488942149
    50   1      2.0249067372956597      3.5070031245574325      19.785888561117535
    51   1      2.0249067372956597      1.1689162386675325      20.637694823402192
    52   1  6.4120016210917119e-05      4.6760466804020266      20.637695142827987
    53   1  6.4120016211051262e-05      2.3379597683301179      21.435794509802108
    54   1      2.0249067372956597      5.8450901842814087      21.435794594851885
    55   1  6.4120016211057632e-05      7.0141336981410518       22.27752733306243
    56   1      2.0249067372956597      3.5070032815481631      22.277527278512572
    57   1  6.4120016211140885e-05      4.6760467951697287      23.119260016465223
    58   1      2.0249067372956597      1.1689162506040345      23.119260102031671
    59   1      2.0249067372956602      5.8450902992167961      23.917359470318114
    60   1  6.4120016210813741e-05      2.3379597800989012      23.917359786609268
    61   1      2.0249067372956597      3.5070032520054704      24.769166122346004
    62   1   6.412001621136522e-05       7.014133854566948      24.769166050745248
    63   1      2.0249067372956602      1.1689164473444582      25.624876987603713
    64   1  6.4120016211060437e-05      4.6760467224814652      25.624877030264688
    65   1      2.0249067372956602      5.8450903188783565      26.364620401805894
    66   1  6.4120016211198632e-05      2.3379598927828837      26.364619340213402
    67   1  6.4120016211239656e-05      7.0141337431002588      27.281310850607017
    68   1      2.0249067372956606       3.507003494970331      27.281310771729284
    69   1  6.4120016211549236e-05      4.6760471054923505      28.187391421246751
    70   1      2.0249067372956606      1.1689161931580316      28.187391459952824
    71   1      2.0249067372956606      5.8450904622754978      28.727852143486391
    72   1  6.4120016211509853e-05      2.3379599061899587      28.727853943784471
