(written by ASE)

42 atoms
1 atom types

0.0      4.0496852345588978  xlo xhi
0.0       4.748676871444693  ylo yhi
0.0      25.989803868507806  zlo zhi

Atoms # atomic

     1   1      4.0496052050642959    0.049660567856614324    -0.38390757082377591
     2   1       2.024762587784847      1.5005037140254067    -0.20712630038079372
     3   1      4.0496052050642959      2.6315169315482168     0.80510353679293256
     4   1      2.0247625877848474       4.025264184132439       1.128367339562717
     5   1      4.0496052050642959     0.50284035662393511      1.9436810587735958
     6   1       2.024762587784847      1.8462301606545837      2.4198396295447897
     7   1      4.0496052050642959      3.1172714727521642      3.1402520849704851
     8   1       2.024762587784847      4.4292124102399688       3.669487159581617
     9   1      4.0496052050642959     0.96533316764347588       4.328692768194407
    10   1      2.0247625877848474      2.2675488867869471      4.9148236507176284
    11   1      4.0496052050642959      3.5613926594375807      5.5325338784672047
    12   1       2.024762587784847     0.10655958867109482      6.1502442009645799
    13   1      4.0496052050642959      1.4087753012029378      6.7363751203304707
    14   1      2.0247625877848465      2.6935729042177647       7.395580708358942
    15   1      4.0496052050642959      4.0055138992737778       7.924815912796392
    16   1       2.024762587784847     0.52787829939029873      8.6452282352313574
    17   1      4.0496052050642959      1.8712680594038751       9.121386697076824
    18   1      2.0247625877848465      3.0975211771541717      9.9367005120695193
    19   1       4.049605205064295      4.4912683964117504      10.259964124516355
    20   1      2.0247625877848465     0.87360475660860859       11.27219415341149
    21   1      4.0496052050642959      2.3244478813974938       11.44897562746292
    22   1      4.0496052050642959      4.6987863319513723      12.610994363430132
    23   1       2.024762587784847      3.2479431857825789       12.78777563387311
    24   1 -8.0029494601765322e-05      2.1169299682597731      13.800005471046832
    25   1       2.024762587784847     0.72318271567554837       14.12326927381662
    26   1 -8.0029494601657511e-05      4.2456065431840528      14.938582993027502
    27   1       2.024762587784847      2.9022167391534084      15.414741563798698
    28   1 -8.0029494601661496e-05      1.6311754270558214      16.135154019224398
    29   1      2.0247625877848479     0.31923448956802164      16.664389093835524
    30   1 -8.0029494601981254e-05      3.7831137321645119      17.323594702448307
    31   1      2.0247625877848474      2.4808980130210423       17.90972558497154
    32   1 -8.0029494602251004e-05      1.1870542403704116      18.527435812721109
    33   1      2.0247625877848474      4.6418873111368955      19.145146135218489
    34   1 -8.0029494601925716e-05      3.3396715986050509      19.731277054584371
    35   1       2.024762587784847      2.0548739955902238      20.390482642612845
    36   1 -8.0029494602293545e-05     0.74293300053420841      20.919717847050297
    37   1      2.0247625877848465      4.2205686004176908      21.640130169485264
    38   1 -8.0029494601823164e-05      2.8771788404041132      22.116288631330718
    39   1      2.0247625877848474      1.6509257226538123      22.931602446323428
    40   1 -8.0029494601453004e-05     0.25717850339623449      23.254866058770261
    41   1       2.024762587784847      3.8748421431993747       24.26709608766539
    42   1 -8.0029494602224522e-05      2.4239990184104889      24.443877561716828
