(written by ASE)

108 atoms
1 atom types

0.0        10.6802931833637  xlo xhi
0.0        10.6802931833637  ylo yhi
0.0        10.6802931833637  zlo zhi

Atoms # atomic

     1   1                       0                       0                       0
     2   1                       0        1.78004886389395        1.78004886389395
     3   1        1.78004886389395                       0        1.78004886389395
     4   1        1.78004886389395        1.78004886389395                       0
     5   1                       0                       0         3.5600977277879
     6   1                       0        1.78004886389395      5.3401465916818491
     7   1        1.78004886389395                       0      5.3401465916818491
     8   1        1.78004886389395        1.78004886389395         3.5600977277879
     9   1                       0                       0         7.1201954555758
    10   1                       0        1.78004886389395      8.9002443194697491
    11   1        1.78004886389395                       0      8.9002443194697491
    12   1        1.78004886389395        1.78004886389395         7.1201954555758
    13   1                       0         3.5600977277879                       0
    14   1                       0      5.3401465916818491        1.78004886389395
    15   1        1.78004886389395         3.5600977277879        1.78004886389395
    16   1        1.78004886389395      5.3401465916818491                       0
    17   1                       0         3.5600977277879         3.5600977277879
    18   1                       0      5.3401465916818491      5.3401465916818491
    19   1        1.78004886389395         3.5600977277879      5.3401465916818491
    20   1        1.78004886389395      5.3401465916818491         3.5600977277879
    21   1                       0         3.5600977277879         7.1201954555758
    22   1                       0      5.3401465916818491      8.9002443194697491
    23   1        1.78004886389395         3.5600977277879      8.9002443194697491
    24   1        1.78004886389395      5.3401465916818491         7.1201954555758
    25   1                       0         7.1201954555758                       0
    26   1                       0      8.9002443194697491        1.78004886389395
    27   1        1.78004886389395         7.1201954555758        1.78004886389395
    28   1        1.78004886389395      8.9002443194697491                       0
    29   1                       0         7.1201954555758         3.5600977277879
    30   1                       0      8.9002443194697491      5.3401465916818491
    31   1        1.78004886389395         7.1201954555758      5.3401465916818491
    32   1        1.78004886389395      8.9002443194697491         3.5600977277879
    33   1                       0         7.1201954555758         7.1201954555758
    34   1                       0      8.9002443194697491      8.9002443194697491
    35   1        1.78004886389395         7.1201954555758      8.9002443194697491
    36   1        1.78004886389395      8.9002443194697491         7.1201954555758
    37   1         3.5600977277879                       0                       0
    38   1         3.5600977277879        1.78004886389395        1.78004886389395
    39   1      5.3401465916818491                       0        1.78004886389395
    40   1      5.3401465916818491        1.78004886389395                       0
    41   1         3.5600977277879                       0         3.5600977277879
    42   1         3.5600977277879        1.78004886389395      5.3401465916818491
    43   1      5.3401465916818491                       0      5.3401465916818491
    44   1      5.3401465916818491        1.78004886389395         3.5600977277879
    45   1         3.5600977277879                       0         7.1201954555758
    46   1         3.5600977277879        1.78004886389395      8.9002443194697491
    47   1      5.3401465916818491                       0      8.9002443194697491
    48   1      5.3401465916818491        1.78004886389395         7.1201954555758
    49   1         3.5600977277879         3.5600977277879                       0
    50   1         3.5600977277879      5.3401465916818491        1.78004886389395
    51   1      5.3401465916818491         3.5600977277879        1.78004886389395
    52   1      5.3401465916818491      5.3401465916818491                       0
    53   1         3.5600977277879         3.5600977277879         3.5600977277879
    54   1         3.5600977277879      5.3401465916818491      5.3401465916818491
    55   1      5.3401465916818491         3.5600977277879      5.3401465916818491
    56   1      5.3401465916818491      5.3401465916818491         3.5600977277879
    57   1         3.5600977277879         3.5600977277879         7.1201954555758
    58   1         3.5600977277879      5.3401465916818491      8.9002443194697491
    59   1      5.3401465916818491         3.5600977277879      8.9002443194697491
    60   1      5.3401465916818491      5.3401465916818491         7.1201954555758
    61   1         3.5600977277879         7.1201954555758                       0
    62   1         3.5600977277879      8.9002443194697491        1.78004886389395
    63   1      5.3401465916818491         7.1201954555758        1.78004886389395
    64   1      5.3401465916818491      8.9002443194697491                       0
    65   1         3.5600977277879         7.1201954555758         3.5600977277879
    66   1         3.5600977277879      8.9002443194697491      5.3401465916818491
    67   1      5.3401465916818491         7.1201954555758      5.3401465916818491
    68   1      5.3401465916818491      8.9002443194697491         3.5600977277879
    69   1         3.5600977277879         7.1201954555758         7.1201954555758
    70   1         3.5600977277879      8.9002443194697491      8.9002443194697491
    71   1      5.3401465916818491         7.1201954555758      8.9002443194697491
    72   1      5.3401465916818491      8.9002443194697491         7.1201954555758
    73   1         7.1201954555758                       0                       0
    74   1         7.1201954555758        1.78004886389395        1.78004886389395
    75   1      8.9002443194697491                       0        1.78004886389395
    76   1      8.9002443194697491        1.78004886389395                       0
    77   1         7.1201954555758                       0         3.5600977277879
    78   1         7.1201954555758        1.78004886389395      5.3401465916818491
    79   1      8.9002443194697491                       0      5.3401465916818491
    80   1      8.9002443194697491        1.78004886389395         3.5600977277879
    81   1         7.1201954555758                       0         7.1201954555758
    82   1         7.1201954555758        1.78004886389395      8.9002443194697491
    83   1      8.9002443194697491                       0      8.9002443194697491
    84   1      8.9002443194697491        1.78004886389395         7.1201954555758
    85   1         7.1201954555758         3.5600977277879                       0
    86   1         7.1201954555758      5.3401465916818491        1.78004886389395
    87   1      8.9002443194697491         3.5600977277879        1.78004886389395
    88   1      8.9002443194697491      5.3401465916818491                       0
    89   1         7.1201954555758         3.5600977277879         3.5600977277879
    90   1         7.1201954555758      5.3401465916818491      5.3401465916818491
    91   1      8.9002443194697491         3.5600977277879      5.3401465916818491
    92   1      8.9002443194697491      5.3401465916818491         3.5600977277879
    93   1         7.1201954555758         3.5600977277879         7.1201954555758
    94   1         7.1201954555758      5.3401465916818491      8.9002443194697491
    95   1      8.9002443194697491         3.5600977277879      8.9002443194697491
    96   1      8.9002443194697491      5.3401465916818491         7.1201954555758
    97   1         7.1201954555758         7.1201954555758                       0
    98   1         7.1201954555758      8.9002443194697491        1.78004886389395
    99   1      8.9002443194697491         7.1201954555758        1.78004886389395
   100   1      8.9002443194697491      8.9002443194697491                       0
   101   1         7.1201954555758         7.1201954555758         3.5600977277879
   102   1         7.1201954555758      8.9002443194697491      5.3401465916818491
   103   1      8.9002443194697491         7.1201954555758      5.3401465916818491
   104   1      8.9002443194697491      8.9002443194697491         3.5600977277879
   105   1         7.1201954555758         7.1201954555758         7.1201954555758
   106   1         7.1201954555758      8.9002443194697491      8.9002443194697491
   107   1      8.9002443194697491         7.1201954555758      8.9002443194697491
   108   1      8.9002443194697491      8.9002443194697491         7.1201954555758
