(written by ASE)

108 atoms
1 atom types

0.0      10.833295101449107  xlo xhi
0.0      10.833295101449107  ylo yhi
0.0      10.833295101449107  zlo zhi

Atoms # atomic

     1   1                       0                       0                       0
     2   1                       0      1.8055491835748509      1.8055491835748509
     3   1      1.8055491835748509                       0      1.8055491835748509
     4   1      1.8055491835748509      1.8055491835748509                       0
     5   1                       0                       0      3.6110983671497019
     6   1                       0      1.8055491835748509      5.4166475507245524
     7   1      1.8055491835748509                       0      5.4166475507245524
     8   1      1.8055491835748509      1.8055491835748509      3.6110983671497019
     9   1                       0                       0      7.2221967342994038
    10   1                       0      1.8055491835748509      9.0277459178742543
    11   1      1.8055491835748509                       0      9.0277459178742543
    12   1      1.8055491835748509      1.8055491835748509      7.2221967342994038
    13   1                       0      3.6110983671497019                       0
    14   1                       0      5.4166475507245524      1.8055491835748509
    15   1      1.8055491835748509      3.6110983671497019      1.8055491835748509
    16   1      1.8055491835748509      5.4166475507245524                       0
    17   1                       0      3.6110983671497019      3.6110983671497019
    18   1                       0      5.4166475507245524      5.4166475507245524
    19   1      1.8055491835748509      3.6110983671497019      5.4166475507245524
    20   1      1.8055491835748509      5.4166475507245524      3.6110983671497019
    21   1                       0      3.6110983671497019      7.2221967342994038
    22   1                       0      5.4166475507245524      9.0277459178742543
    23   1      1.8055491835748509      3.6110983671497019      9.0277459178742543
    24   1      1.8055491835748509      5.4166475507245524      7.2221967342994038
    25   1                       0      7.2221967342994038                       0
    26   1                       0      9.0277459178742543      1.8055491835748509
    27   1      1.8055491835748509      7.2221967342994038      1.8055491835748509
    28   1      1.8055491835748509      9.0277459178742543                       0
    29   1                       0      7.2221967342994038      3.6110983671497019
    30   1                       0      9.0277459178742543      5.4166475507245524
    31   1      1.8055491835748509      7.2221967342994038      5.4166475507245524
    32   1      1.8055491835748509      9.0277459178742543      3.6110983671497019
    33   1                       0      7.2221967342994038      7.2221967342994038
    34   1                       0      9.0277459178742543      9.0277459178742543
    35   1      1.8055491835748509      7.2221967342994038      9.0277459178742543
    36   1      1.8055491835748509      9.0277459178742543      7.2221967342994038
    37   1      3.6110983671497019                       0                       0
    38   1      3.6110983671497019      1.8055491835748509      1.8055491835748509
    39   1      5.4166475507245524                       0      1.8055491835748509
    40   1      5.4166475507245524      1.8055491835748509                       0
    41   1      3.6110983671497019                       0      3.6110983671497019
    42   1      3.6110983671497019      1.8055491835748509      5.4166475507245524
    43   1      5.4166475507245524                       0      5.4166475507245524
    44   1      5.4166475507245524      1.8055491835748509      3.6110983671497019
    45   1      3.6110983671497019                       0      7.2221967342994038
    46   1      3.6110983671497019      1.8055491835748509      9.0277459178742543
    47   1      5.4166475507245524                       0      9.0277459178742543
    48   1      5.4166475507245524      1.8055491835748509      7.2221967342994038
    49   1      3.6110983671497019      3.6110983671497019                       0
    50   1      3.6110983671497019      5.4166475507245524      1.8055491835748509
    51   1      5.4166475507245524      3.6110983671497019      1.8055491835748509
    52   1      5.4166475507245524      5.4166475507245524                       0
    53   1      3.6110983671497019      3.6110983671497019      3.6110983671497019
    54   1      3.6110983671497019      5.4166475507245524      5.4166475507245524
    55   1      5.4166475507245524      3.6110983671497019      5.4166475507245524
    56   1      5.4166475507245524      5.4166475507245524      3.6110983671497019
    57   1      3.6110983671497019      3.6110983671497019      7.2221967342994038
    58   1      3.6110983671497019      5.4166475507245524      9.0277459178742543
    59   1      5.4166475507245524      3.6110983671497019      9.0277459178742543
    60   1      5.4166475507245524      5.4166475507245524      7.2221967342994038
    61   1      3.6110983671497019      7.2221967342994038                       0
    62   1      3.6110983671497019      9.0277459178742543      1.8055491835748509
    63   1      5.4166475507245524      7.2221967342994038      1.8055491835748509
    64   1      5.4166475507245524      9.0277459178742543                       0
    65   1      3.6110983671497019      7.2221967342994038      3.6110983671497019
    66   1      3.6110983671497019      9.0277459178742543      5.4166475507245524
    67   1      5.4166475507245524      7.2221967342994038      5.4166475507245524
    68   1      5.4166475507245524      9.0277459178742543      3.6110983671497019
    69   1      3.6110983671497019      7.2221967342994038      7.2221967342994038
    70   1      3.6110983671497019      9.0277459178742543      9.0277459178742543
    71   1      5.4166475507245524      7.2221967342994038      9.0277459178742543
    72   1      5.4166475507245524      9.0277459178742543      7.2221967342994038
    73   1      7.2221967342994038                       0                       0
    74   1      7.2221967342994038      1.8055491835748509      1.8055491835748509
    75   1      9.0277459178742543                       0      1.8055491835748509
    76   1      9.0277459178742543      1.8055491835748509                       0
    77   1      7.2221967342994038                       0      3.6110983671497019
    78   1      7.2221967342994038      1.8055491835748509      5.4166475507245524
    79   1      9.0277459178742543                       0      5.4166475507245524
    80   1      9.0277459178742543      1.8055491835748509      3.6110983671497019
    81   1      7.2221967342994038                       0      7.2221967342994038
    82   1      7.2221967342994038      1.8055491835748509      9.0277459178742543
    83   1      9.0277459178742543                       0      9.0277459178742543
    84   1      9.0277459178742543      1.8055491835748509      7.2221967342994038
    85   1      7.2221967342994038      3.6110983671497019                       0
    86   1      7.2221967342994038      5.4166475507245524      1.8055491835748509
    87   1      9.0277459178742543      3.6110983671497019      1.8055491835748509
    88   1      9.0277459178742543      5.4166475507245524                       0
    89   1      7.2221967342994038      3.6110983671497019      3.6110983671497019
    90   1      7.2221967342994038      5.4166475507245524      5.4166475507245524
    91   1      9.0277459178742543      3.6110983671497019      5.4166475507245524
    92   1      9.0277459178742543      5.4166475507245524      3.6110983671497019
    93   1      7.2221967342994038      3.6110983671497019      7.2221967342994038
    94   1      7.2221967342994038      5.4166475507245524      9.0277459178742543
    95   1      9.0277459178742543      3.6110983671497019      9.0277459178742543
    96   1      9.0277459178742543      5.4166475507245524      7.2221967342994038
    97   1      7.2221967342994038      7.2221967342994038                       0
    98   1      7.2221967342994038      9.0277459178742543      1.8055491835748509
    99   1      9.0277459178742543      7.2221967342994038      1.8055491835748509
   100   1      9.0277459178742543      9.0277459178742543                       0
   101   1      7.2221967342994038      7.2221967342994038      3.6110983671497019
   102   1      7.2221967342994038      9.0277459178742543      5.4166475507245524
   103   1      9.0277459178742543      7.2221967342994038      5.4166475507245524
   104   1      9.0277459178742543      9.0277459178742543      3.6110983671497019
   105   1      7.2221967342994038      7.2221967342994038      7.2221967342994038
   106   1      7.2221967342994038      9.0277459178742543      9.0277459178742543
   107   1      9.0277459178742543      7.2221967342994038      9.0277459178742543
   108   1      9.0277459178742543      9.0277459178742543      7.2221967342994038
