(written by ASE)

108 atoms
1 atom types

0.0      10.974632691651504  xlo xhi
0.0      10.974632691651504  ylo yhi
0.0      10.974632691651504  zlo zhi

Atoms # atomic

     1   1                       0                       0                       0
     2   1                       0      1.8291054486085838      1.8291054486085838
     3   1      1.8291054486085838                       0      1.8291054486085838
     4   1      1.8291054486085838      1.8291054486085838                       0
     5   1                       0                       0      3.6582108972171676
     6   1                       0      1.8291054486085838       5.487316345825751
     7   1      1.8291054486085838                       0       5.487316345825751
     8   1      1.8291054486085838      1.8291054486085838      3.6582108972171676
     9   1                       0                       0      7.3164217944343353
    10   1                       0      1.8291054486085838      9.1455272430429186
    11   1      1.8291054486085838                       0      9.1455272430429186
    12   1      1.8291054486085838      1.8291054486085838      7.3164217944343353
    13   1                       0      3.6582108972171676                       0
    14   1                       0       5.487316345825751      1.8291054486085838
    15   1      1.8291054486085838      3.6582108972171676      1.8291054486085838
    16   1      1.8291054486085838       5.487316345825751                       0
    17   1                       0      3.6582108972171676      3.6582108972171676
    18   1                       0       5.487316345825751       5.487316345825751
    19   1      1.8291054486085838      3.6582108972171676       5.487316345825751
    20   1      1.8291054486085838       5.487316345825751      3.6582108972171676
    21   1                       0      3.6582108972171676      7.3164217944343353
    22   1                       0       5.487316345825751      9.1455272430429186
    23   1      1.8291054486085838      3.6582108972171676      9.1455272430429186
    24   1      1.8291054486085838       5.487316345825751      7.3164217944343353
    25   1                       0      7.3164217944343353                       0
    26   1                       0      9.1455272430429186      1.8291054486085838
    27   1      1.8291054486085838      7.3164217944343353      1.8291054486085838
    28   1      1.8291054486085838      9.1455272430429186                       0
    29   1                       0      7.3164217944343353      3.6582108972171676
    30   1                       0      9.1455272430429186       5.487316345825751
    31   1      1.8291054486085838      7.3164217944343353       5.487316345825751
    32   1      1.8291054486085838      9.1455272430429186      3.6582108972171676
    33   1                       0      7.3164217944343353      7.3164217944343353
    34   1                       0      9.1455272430429186      9.1455272430429186
    35   1      1.8291054486085838      7.3164217944343353      9.1455272430429186
    36   1      1.8291054486085838      9.1455272430429186      7.3164217944343353
    37   1      3.6582108972171676                       0                       0
    38   1      3.6582108972171676      1.8291054486085838      1.8291054486085838
    39   1       5.487316345825751                       0      1.8291054486085838
    40   1       5.487316345825751      1.8291054486085838                       0
    41   1      3.6582108972171676                       0      3.6582108972171676
    42   1      3.6582108972171676      1.8291054486085838       5.487316345825751
    43   1       5.487316345825751                       0       5.487316345825751
    44   1       5.487316345825751      1.8291054486085838      3.6582108972171676
    45   1      3.6582108972171676                       0      7.3164217944343353
    46   1      3.6582108972171676      1.8291054486085838      9.1455272430429186
    47   1       5.487316345825751                       0      9.1455272430429186
    48   1       5.487316345825751      1.8291054486085838      7.3164217944343353
    49   1      3.6582108972171676      3.6582108972171676                       0
    50   1      3.6582108972171676       5.487316345825751      1.8291054486085838
    51   1       5.487316345825751      3.6582108972171676      1.8291054486085838
    52   1       5.487316345825751       5.487316345825751                       0
    53   1      3.6582108972171676      3.6582108972171676      3.6582108972171676
    54   1      3.6582108972171676       5.487316345825751       5.487316345825751
    55   1       5.487316345825751      3.6582108972171676       5.487316345825751
    56   1       5.487316345825751       5.487316345825751      3.6582108972171676
    57   1      3.6582108972171676      3.6582108972171676      7.3164217944343353
    58   1      3.6582108972171676       5.487316345825751      9.1455272430429186
    59   1       5.487316345825751      3.6582108972171676      9.1455272430429186
    60   1       5.487316345825751       5.487316345825751      7.3164217944343353
    61   1      3.6582108972171676      7.3164217944343353                       0
    62   1      3.6582108972171676      9.1455272430429186      1.8291054486085838
    63   1       5.487316345825751      7.3164217944343353      1.8291054486085838
    64   1       5.487316345825751      9.1455272430429186                       0
    65   1      3.6582108972171676      7.3164217944343353      3.6582108972171676
    66   1      3.6582108972171676      9.1455272430429186       5.487316345825751
    67   1       5.487316345825751      7.3164217944343353       5.487316345825751
    68   1       5.487316345825751      9.1455272430429186      3.6582108972171676
    69   1      3.6582108972171676      7.3164217944343353      7.3164217944343353
    70   1      3.6582108972171676      9.1455272430429186      9.1455272430429186
    71   1       5.487316345825751      7.3164217944343353      9.1455272430429186
    72   1       5.487316345825751      9.1455272430429186      7.3164217944343353
    73   1      7.3164217944343353                       0                       0
    74   1      7.3164217944343353      1.8291054486085838      1.8291054486085838
    75   1      9.1455272430429186                       0      1.8291054486085838
    76   1      9.1455272430429186      1.8291054486085838                       0
    77   1      7.3164217944343353                       0      3.6582108972171676
    78   1      7.3164217944343353      1.8291054486085838       5.487316345825751
    79   1      9.1455272430429186                       0       5.487316345825751
    80   1      9.1455272430429186      1.8291054486085838      3.6582108972171676
    81   1      7.3164217944343353                       0      7.3164217944343353
    82   1      7.3164217944343353      1.8291054486085838      9.1455272430429186
    83   1      9.1455272430429186                       0      9.1455272430429186
    84   1      9.1455272430429186      1.8291054486085838      7.3164217944343353
    85   1      7.3164217944343353      3.6582108972171676                       0
    86   1      7.3164217944343353       5.487316345825751      1.8291054486085838
    87   1      9.1455272430429186      3.6582108972171676      1.8291054486085838
    88   1      9.1455272430429186       5.487316345825751                       0
    89   1      7.3164217944343353      3.6582108972171676      3.6582108972171676
    90   1      7.3164217944343353       5.487316345825751       5.487316345825751
    91   1      9.1455272430429186      3.6582108972171676       5.487316345825751
    92   1      9.1455272430429186       5.487316345825751      3.6582108972171676
    93   1      7.3164217944343353      3.6582108972171676      7.3164217944343353
    94   1      7.3164217944343353       5.487316345825751      9.1455272430429186
    95   1      9.1455272430429186      3.6582108972171676      9.1455272430429186
    96   1      9.1455272430429186       5.487316345825751      7.3164217944343353
    97   1      7.3164217944343353      7.3164217944343353                       0
    98   1      7.3164217944343353      9.1455272430429186      1.8291054486085838
    99   1      9.1455272430429186      7.3164217944343353      1.8291054486085838
   100   1      9.1455272430429186      9.1455272430429186                       0
   101   1      7.3164217944343353      7.3164217944343353      3.6582108972171676
   102   1      7.3164217944343353      9.1455272430429186       5.487316345825751
   103   1      9.1455272430429186      7.3164217944343353       5.487316345825751
   104   1      9.1455272430429186      9.1455272430429186      3.6582108972171676
   105   1      7.3164217944343353      7.3164217944343353      7.3164217944343353
   106   1      7.3164217944343353      9.1455272430429186      9.1455272430429186
   107   1      9.1455272430429186      7.3164217944343353      9.1455272430429186
   108   1      9.1455272430429186      9.1455272430429186      7.3164217944343353
