(written by ASE)

108 atoms
1 atom types

0.0      10.885326069903435  xlo xhi
0.0      10.885326069903435  ylo yhi
0.0      10.885326069903435  zlo zhi

Atoms # atomic

     1   1                       0                       0                       0
     2   1                       0      1.8142210116505724      1.8142210116505724
     3   1      1.8142210116505724                       0      1.8142210116505724
     4   1      1.8142210116505724      1.8142210116505724                       0
     5   1                       0                       0      3.6284420233011447
     6   1                       0      1.8142210116505724      5.4426630349517167
     7   1      1.8142210116505724                       0      5.4426630349517167
     8   1      1.8142210116505724      1.8142210116505724      3.6284420233011447
     9   1                       0                       0      7.2568840466022895
    10   1                       0      1.8142210116505724      9.0711050582528614
    11   1      1.8142210116505724                       0      9.0711050582528614
    12   1      1.8142210116505724      1.8142210116505724      7.2568840466022895
    13   1                       0      3.6284420233011447                       0
    14   1                       0      5.4426630349517167      1.8142210116505724
    15   1      1.8142210116505724      3.6284420233011447      1.8142210116505724
    16   1      1.8142210116505724      5.4426630349517167                       0
    17   1                       0      3.6284420233011447      3.6284420233011447
    18   1                       0      5.4426630349517167      5.4426630349517167
    19   1      1.8142210116505724      3.6284420233011447      5.4426630349517167
    20   1      1.8142210116505724      5.4426630349517167      3.6284420233011447
    21   1                       0      3.6284420233011447      7.2568840466022895
    22   1                       0      5.4426630349517167      9.0711050582528614
    23   1      1.8142210116505724      3.6284420233011447      9.0711050582528614
    24   1      1.8142210116505724      5.4426630349517167      7.2568840466022895
    25   1                       0      7.2568840466022895                       0
    26   1                       0      9.0711050582528614      1.8142210116505724
    27   1      1.8142210116505724      7.2568840466022895      1.8142210116505724
    28   1      1.8142210116505724      9.0711050582528614                       0
    29   1                       0      7.2568840466022895      3.6284420233011447
    30   1                       0      9.0711050582528614      5.4426630349517167
    31   1      1.8142210116505724      7.2568840466022895      5.4426630349517167
    32   1      1.8142210116505724      9.0711050582528614      3.6284420233011447
    33   1                       0      7.2568840466022895      7.2568840466022895
    34   1                       0      9.0711050582528614      9.0711050582528614
    35   1      1.8142210116505724      7.2568840466022895      9.0711050582528614
    36   1      1.8142210116505724      9.0711050582528614      7.2568840466022895
    37   1      3.6284420233011447                       0                       0
    38   1      3.6284420233011447      1.8142210116505724      1.8142210116505724
    39   1      5.4426630349517167                       0      1.8142210116505724
    40   1      5.4426630349517167      1.8142210116505724                       0
    41   1      3.6284420233011447                       0      3.6284420233011447
    42   1      3.6284420233011447      1.8142210116505724      5.4426630349517167
    43   1      5.4426630349517167                       0      5.4426630349517167
    44   1      5.4426630349517167      1.8142210116505724      3.6284420233011447
    45   1      3.6284420233011447                       0      7.2568840466022895
    46   1      3.6284420233011447      1.8142210116505724      9.0711050582528614
    47   1      5.4426630349517167                       0      9.0711050582528614
    48   1      5.4426630349517167      1.8142210116505724      7.2568840466022895
    49   1      3.6284420233011447      3.6284420233011447                       0
    50   1      3.6284420233011447      5.4426630349517167      1.8142210116505724
    51   1      5.4426630349517167      3.6284420233011447      1.8142210116505724
    52   1      5.4426630349517167      5.4426630349517167                       0
    53   1      3.6284420233011447      3.6284420233011447      3.6284420233011447
    54   1      3.6284420233011447      5.4426630349517167      5.4426630349517167
    55   1      5.4426630349517167      3.6284420233011447      5.4426630349517167
    56   1      5.4426630349517167      5.4426630349517167      3.6284420233011447
    57   1      3.6284420233011447      3.6284420233011447      7.2568840466022895
    58   1      3.6284420233011447      5.4426630349517167      9.0711050582528614
    59   1      5.4426630349517167      3.6284420233011447      9.0711050582528614
    60   1      5.4426630349517167      5.4426630349517167      7.2568840466022895
    61   1      3.6284420233011447      7.2568840466022895                       0
    62   1      3.6284420233011447      9.0711050582528614      1.8142210116505724
    63   1      5.4426630349517167      7.2568840466022895      1.8142210116505724
    64   1      5.4426630349517167      9.0711050582528614                       0
    65   1      3.6284420233011447      7.2568840466022895      3.6284420233011447
    66   1      3.6284420233011447      9.0711050582528614      5.4426630349517167
    67   1      5.4426630349517167      7.2568840466022895      5.4426630349517167
    68   1      5.4426630349517167      9.0711050582528614      3.6284420233011447
    69   1      3.6284420233011447      7.2568840466022895      7.2568840466022895
    70   1      3.6284420233011447      9.0711050582528614      9.0711050582528614
    71   1      5.4426630349517167      7.2568840466022895      9.0711050582528614
    72   1      5.4426630349517167      9.0711050582528614      7.2568840466022895
    73   1      7.2568840466022895                       0                       0
    74   1      7.2568840466022895      1.8142210116505724      1.8142210116505724
    75   1      9.0711050582528614                       0      1.8142210116505724
    76   1      9.0711050582528614      1.8142210116505724                       0
    77   1      7.2568840466022895                       0      3.6284420233011447
    78   1      7.2568840466022895      1.8142210116505724      5.4426630349517167
    79   1      9.0711050582528614                       0      5.4426630349517167
    80   1      9.0711050582528614      1.8142210116505724      3.6284420233011447
    81   1      7.2568840466022895                       0      7.2568840466022895
    82   1      7.2568840466022895      1.8142210116505724      9.0711050582528614
    83   1      9.0711050582528614                       0      9.0711050582528614
    84   1      9.0711050582528614      1.8142210116505724      7.2568840466022895
    85   1      7.2568840466022895      3.6284420233011447                       0
    86   1      7.2568840466022895      5.4426630349517167      1.8142210116505724
    87   1      9.0711050582528614      3.6284420233011447      1.8142210116505724
    88   1      9.0711050582528614      5.4426630349517167                       0
    89   1      7.2568840466022895      3.6284420233011447      3.6284420233011447
    90   1      7.2568840466022895      5.4426630349517167      5.4426630349517167
    91   1      9.0711050582528614      3.6284420233011447      5.4426630349517167
    92   1      9.0711050582528614      5.4426630349517167      3.6284420233011447
    93   1      7.2568840466022895      3.6284420233011447      7.2568840466022895
    94   1      7.2568840466022895      5.4426630349517167      9.0711050582528614
    95   1      9.0711050582528614      3.6284420233011447      9.0711050582528614
    96   1      9.0711050582528614      5.4426630349517167      7.2568840466022895
    97   1      7.2568840466022895      7.2568840466022895                       0
    98   1      7.2568840466022895      9.0711050582528614      1.8142210116505724
    99   1      9.0711050582528614      7.2568840466022895      1.8142210116505724
   100   1      9.0711050582528614      9.0711050582528614                       0
   101   1      7.2568840466022895      7.2568840466022895      3.6284420233011447
   102   1      7.2568840466022895      9.0711050582528614      5.4426630349517167
   103   1      9.0711050582528614      7.2568840466022895      5.4426630349517167
   104   1      9.0711050582528614      9.0711050582528614      3.6284420233011447
   105   1      7.2568840466022895      7.2568840466022895      7.2568840466022895
   106   1      7.2568840466022895      9.0711050582528614      9.0711050582528614
   107   1      9.0711050582528614      7.2568840466022895      9.0711050582528614
   108   1      9.0711050582528614      9.0711050582528614      7.2568840466022895
