(written by ASE)

144 atoms
1 atom types

0.0      11.020053547426444  xlo xhi
0.0                      30  ylo yhi
0.0      6.9724735581572146  zlo zhi

Atoms # atomic

     1   1      1.6580384831333976      18.868191585486343      2.1888029390724655
     2   1      1.0966813674493239      17.140111107411073     0.44568417014730061
     3   1      2.2018499062899988      20.595531005472736     0.44568402776474525
     4   1      8.2626527544883359      16.564446845077057      2.1888039477897099
     5   1      10.495822058309704      17.730965389820298      2.1888034803419916
     6   1      9.3721048581231106      20.015565271696403      2.1888032647648266
     7   1    0.004006808619300751      19.437881945835457     0.44568373544202738
     8   1      8.7984900211099344      18.327902804423175     0.44568351886211799
     9   1     0.55290054504611152      21.157001309988061      2.1888029608480624
    10   1      10.470859407981058      23.444824102864089      2.1888027132064365
    11   1      1.1025241118089688      22.876091399851134     0.44568409095776862
    12   1      9.9208824696883866      21.728426523704599     0.44568388433040962
    13   1      1.6546779488251802      24.589255353272733      2.1888025320794564
    14   1   0.0013060720088395668      25.160877760224025     0.44568420243445761
    15   1      4.9857952170623854      17.730965506982898      2.1888030083997538
    16   1      6.6067083675982783      17.140111001958374     0.44568383668785649
    17   1      7.1680652696622129       18.86819141826858      2.1888032825138071
    18   1      6.0629273791404694      21.157001586014616       2.188802945027152
    19   1      7.7118768117352072      20.595531251307278     0.44568378766692601
    20   1      5.5140334398466893       19.43788181802293     0.44568389544678227
    21   1      8.2672537874429786      22.303297354810496      2.1888028928410583
    22   1      7.1647047674501687      24.589255651991408      2.1888025721474955
    23   1      8.8181312797357005      24.016481606566316     0.44568411307547351
    24   1      6.6125507422657783      22.876091105526058     0.44568406560062485
    25   1      2.7526260795387079      16.564446856344517      2.1888023973909148
    26   1      3.2884633617070991       18.32790294122718     0.44568419615591592
    27   1      3.8620780652589453      20.015565021230145       2.188802878754275
    28   1      2.7572270693987546      22.303297676878088      2.1888027262824545
    29   1      4.4108558469147976      21.728426782002686     0.44568407262839671
    30   1      4.9608325653434067      23.444823785312991      2.1888026322498844
    31   1      5.5113329865019836      25.160878000619675      0.4456842331606819
    32   1      3.3081043494375044      24.016481328529579     0.44568421038173045
    33   1      9.9371682060877138      13.839953686311404     0.44568420703141287
    34   1      10.495833310051644      12.269034580943384      2.1888030005841621
    35   1      9.9371570710214332      16.160049945306056     0.44568374544430056
    36   1      8.8181520976338916      5.9835194843453507     0.44568414401686296
    37   1       10.47087922303718      6.5551771699672656      2.1888030966842265
    38   1      9.9209019717699114      8.2715744223063723     0.44568423839013516
    39   1      7.7118935569280982      9.4044687085062861       0.445684295859263
    40   1      9.3721188429017932      9.9844326300135293      2.1888030552922633
    41   1      8.2672726846034816       7.696702219841697      2.1888030929400255
    42   1      8.7985034995395317      11.672097310407636     0.44568417224587809
    43   1      6.6067214396290526       12.85989473434573     0.44568433492390863
    44   1      8.2626680805312525      13.435561519405638      2.1888036499089849
    45   1      7.1680789732091661      11.131812431967077      2.1888029864071603
    46   1       7.714603282411467      15.000004941789484     0.44568335658990033
    47   1      5.9443162782418604      15.000005823028843      2.1888029364598203
    48   1      5.5113567187405419      4.8391219993803247     0.44568418996743403
    49   1      7.1647259371592318      5.4107448646061158      2.1888030737479949
    50   1      6.6125694523354861      7.1239104009501659     0.44568423128462031
    51   1      4.4108755054621556      8.2715744419632102      0.4456844227610795
    52   1      6.0629454058501251      8.8430010357233044      2.1888029247330945
    53   1      4.9608527689930408       6.555177411135773      2.1888030100090172
    54   1      5.5140488062318527      10.562120106570774     0.44568458978681252
    55   1       3.288476848907901      11.672097375433708       0.445684855035134
    56   1      4.9858065169451002      12.269034578632912      2.1888025386590959
    57   1      3.8620922427867708      9.9844327222834721      2.1888026710467616
    58   1      4.4271413777383675      13.839953593684371      0.4456847745730122
    59   1      2.2045765200632799      15.000004586805673     0.44568500247137305
    60   1      4.4271302268714861      16.160049951266998     0.44568430127609804
    61   1      2.7526412588656717      13.435561615778823        2.18880210293079
    62   1      3.3081249324162574       5.983519523391962     0.44568423636396093
    63   1      1.1025430430014913      7.1239104118327532      0.4456842625750686
    64   1      2.7572456474064082      7.6967020503585815      2.1888029268187457
    65   1      1.6546994793522596      5.4107451408858651      2.1888030357039403
    66   1      2.2018665369789714      9.4044686609344836     0.44568453896348809
    67   1   0.0040221685791608655      10.562120064171097     0.44568442584546653
    68   1      1.6580520745487921      11.131812312279337      2.1888026459955632
    69   1     0.55291886826487247       8.843001183858533       2.188802944952343
    70   1      1.0966947425141613      12.859894856021072     0.44568466618569935
    71   1     0.43428948804873957      15.000005822744455      2.1888027606723668
    72   1   0.0013295250648340242      4.8391220552825871     0.44568416430454383
    73   1      1.6580384831333976      18.868191585486343      5.6750397181510719
    74   1      1.0966813674493239      17.140111107411073      3.9319209492259071
    75   1      2.2018499062899988      20.595531005472736       3.931920806843352
    76   1      8.2626527544883359      16.564446845077057      5.6750407268683167
    77   1      10.495822058309704      17.730965389820298      5.6750402594205971
    78   1      9.3721048581231106      20.015565271696403       5.675040043843433
    79   1    0.004006808619300751      19.437881945835457      3.9319205145206335
    80   1      8.7984900211099344      18.327902804423175      3.9319202979407244
    81   1     0.55290054504611152      21.157001309988061      5.6750397399266683
    82   1      10.470859407981058      23.444824102864089      5.6750394922850411
    83   1      1.1025241118089688      22.876091399851134      3.9319208700363752
    84   1      9.9208824696883866      21.728426523704599      3.9319206634090165
    85   1      1.6546779488251802      24.589255353272733      5.6750393111580628
    86   1   0.0013060720088395668      25.160877760224025      3.9319209815130636
    87   1      4.9857952170623854      17.730965506982898      5.6750397874783598
    88   1      6.6067083675982783      17.140111001958374      3.9319206157664621
    89   1      7.1680652696622129       18.86819141826858       5.675040061592413
    90   1      6.0629273791404694      21.157001586014616      5.6750397241057575
    91   1      7.7118768117352072      20.595531251307278      3.9319205667455321
    92   1      5.5140334398466893       19.43788181802293      3.9319206745253878
    93   1      8.2672537874429786      22.303297354810496      5.6750396719196639
    94   1      7.1647047674501687      24.589255651991408      5.6750393512261015
    95   1      8.8181312797357005      24.016481606566316      3.9319208921540794
    96   1      6.6125507422657783      22.876091105526058      3.9319208446792313
    97   1      2.7526260795387079      16.564446856344517      5.6750391764695207
    98   1      3.2884633617070991       18.32790294122718      3.9319209752345223
    99   1      3.8620780652589453      20.015565021230145      5.6750396578328814
   100   1      2.7572270693987546      22.303297676878088      5.6750395053610605
   101   1      4.4108558469147976      21.728426782002686      3.9319208517070026
   102   1      4.9608325653434067      23.444823785312991      5.6750394113284903
   103   1      5.5113329865019836      25.160878000619675      3.9319210122392887
   104   1      3.3081043494375044      24.016481328529579      3.9319209894603371
   105   1      9.9371682060877138      13.839953686311404      3.9319209861100188
   106   1      10.495833310051644      12.269034580943384       5.675039779662769
   107   1      9.9371570710214332      16.160049945306056      3.9319205245229063
   108   1      8.8181520976338916      5.9835194843453507      3.9319209230954697
   109   1       10.47087922303718      6.5551771699672656      5.6750398757628338
   110   1      9.9209019717699114      8.2715744223063723       3.931921017468742
   111   1      7.7118935569280982      9.4044687085062861      3.9319210749378688
   112   1      9.3721188429017932      9.9844326300135293      5.6750398343708692
   113   1      8.2672726846034816       7.696702219841697      5.6750398720186324
   114   1      8.7985034995395317      11.672097310407636      3.9319209513244844
   115   1      6.6067214396290526       12.85989473434573      3.9319211140025145
   116   1      8.2626680805312525      13.435561519405638      5.6750404289875913
   117   1      7.1680789732091661      11.131812431967077      5.6750397654857663
   118   1       7.714603282411467      15.000004941789484      3.9319201356685061
   119   1      5.9443162782418604      15.000005823028843      5.6750397155384267
   120   1      5.5113567187405419      4.8391219993803247      3.9319209690460406
   121   1      7.1647259371592318      5.4107448646061158      5.6750398528266004
   122   1      6.6125694523354861      7.1239104009501659      3.9319210103632272
   123   1      4.4108755054621556      8.2715744419632102      3.9319212018396867
   124   1      6.0629454058501251      8.8430010357233044      5.6750397038117004
   125   1      4.9608527689930408       6.555177411135773      5.6750397890876227
   126   1      5.5140488062318527      10.562120106570774      3.9319213688654178
   127   1       3.288476848907901      11.672097375433708      3.9319216341137406
   128   1      4.9858065169451002      12.269034578632912      5.6750393177377019
   129   1      3.8620922427867708      9.9844327222834721      5.6750394501253663
   130   1      4.4271413777383675      13.839953593684371      3.9319215536516188
   131   1      2.2045765200632799      15.000004586805673       3.931921781549979
   132   1      4.4271302268714861      16.160049951266998      3.9319210803547033
   133   1      2.7526412588656717      13.435561615778823      5.6750388820093969
   134   1      3.3081249324162574       5.983519523391962      3.9319210154425672
   135   1      1.1025430430014913      7.1239104118327532      3.9319210416536747
   136   1      2.7572456474064082      7.6967020503585815       5.675039705897353
   137   1      1.6546994793522596      5.4107451408858651      5.6750398147825454
   138   1      2.2018665369789714      9.4044686609344836       3.931921318042094
   139   1   0.0040221685791608655      10.562120064171097      3.9319212049240728
   140   1      1.6580520745487921      11.131812312279337      5.6750394250741696
   141   1     0.55291886826487247       8.843001183858533       5.675039724030948
   142   1      1.0966947425141613      12.859894856021072      3.9319214452643059
   143   1     0.43428948804873957      15.000005822744455      5.6750395397509745
   144   1   0.0013295250648340242      4.8391220552825871      3.9319209433831506
