(written by ASE)

276 atoms
1 atom types

0.0      21.203016342814241  xlo xhi
0.0                      30  ylo yhi
0.0      6.9724735581572146  zlo zhi

Atoms # atomic

     1   1      9.0758031852892476      16.757376940230415      1.7431183867878435
     2   1      9.7021478959000529      20.169339073231868      1.7431183867792919
     3   1      9.3851224564837992      18.436912388408047      3.4862367763188966
     4   1      10.326140840138708      23.697968298816619      1.7431183867708213
     5   1      10.027106111657803      21.922499549624973      3.4862367763143514
     6   1      5.6675579425973268      16.937540933279564      1.7431183867852675
     7   1      7.3329728103690579      16.835134007838178      3.4862367763230164
     8   1       7.626141029217508      18.680528963709861      1.7431183867833553
     9   1      6.2885119232069924      20.771616978445081      1.7431183867863054
    10   1      7.9781514212624955      20.475226160540274      3.4862367763203435
    11   1      5.9946147121495832      18.922442527288752      3.4862367763237345
    12   1       8.300051629986589      22.248860598423306      1.7431183867796616
    13   1      6.8731947529267847      24.324060266746415      1.7431183867837514
    14   1      8.6017143655130663      24.014985324596296      3.4862367763144966
    15   1       6.580720804071424      22.555326910808219      3.4862367763246009
    16   1       2.427879890271059      17.798244652367003      1.7431183867900806
    17   1      4.1294954836735673      17.311122543243386      3.4862367763240569
    18   1      2.1133475739527663       16.17401400946801      3.4862367763182638
    19   1      4.3719976506859783      19.203356176227885       1.743118386788669
    20   1      2.8942000963396834      21.303209064583598      1.7431183867967521
    21   1      4.6021076198581321       21.03530699622516      3.4862367763301476
    22   1      2.6534158213530432      19.519076923563802      3.4862367763276016
    23   1      4.8646930764067289      22.835971530076193      1.7431183867935247
    24   1      3.4319484057256342      24.902689384135471      1.7431183868009188
    25   1      5.1482913606879528      24.618197062617867        3.48623677633186
    26   1      3.1534033945741839      23.105686989974231      3.4862367763387399
    27   1     0.36614889116755678        16.5231982106217       1.743118386814879
    28   1      19.986630627885095      18.436912388373514      1.7431183867924736
    29   1     0.58334027492912455      18.168496753711679      3.4862367763155815
    30   1      19.677311356657139      16.757376940309314      3.4862367763170292
    31   1     0.88006889921058018      19.850237502785632      1.7431183867961495
    32   1      20.628614283046954      21.922499549599252      1.7431183868003537
    33   1      1.1614385318616782      21.600713881603156      3.4862367763373685
    34   1      20.303656067287747      20.169339073244942      3.4862367763310798
    35   1      1.4418981991096673      23.390428036630908      1.7431183868042577
    36   1      1.7217898910657268      25.188733340884937      3.4862367763439521
    37   1       20.92764901153328      23.697968298809229      3.4862367763429498
    38   1       17.93448098175616      16.835134007866316      1.7431183867865445
    39   1      16.596122883576101      18.922442527286336      1.7431183867865061
    40   1      18.227649200601807      18.680528963693178       3.486236776326161
    41   1      16.269066114010052       16.93754093328144      3.4862367763219275
    42   1      18.579659592635263      20.475226160549511      1.7431183867931255
    43   1      17.182228975480367      22.555326910810123      1.7431183867904689
    44   1      18.901559801373853      22.248860598408697      3.4862367763354625
    45   1       16.89002009462255      20.771616978463214       3.486236776327801
    46   1      19.203222536918769      24.014985324606357      1.7431183867989861
    47   1      17.474702924349121      24.324060266773415      3.4862367763290454
    48   1      12.714855745358506      16.174014009426543      1.7431183867808702
    49   1       14.73100365502888      17.311122543254811      1.7431183867826783
    50   1      13.254923992760927      19.519076923549989      1.7431183867800397
    51   1       14.97350582202146      19.203356176216573      3.4862367763218343
    52   1      13.029388061733313      17.798244652431606      3.4862367763168463
    53   1      15.203615791247936      21.035306996262364      1.7431183867841231
    54   1      13.754911566001388      23.105686989996542       1.743118386775065
    55   1      15.466201247812382      22.835971530096344      3.4862367763213276
    56   1      13.495708267765567      21.303209064618983      3.4862367763175199
    57   1      15.749799532114029      24.618197062656492      1.7431183867780917
    58   1      14.033456577156933      24.902689384173499      3.4862367763078255
    59   1      10.967657062512647      16.523198210505683      3.4862367763148501
    60   1      11.184848446329788      18.168496753772985      1.7431183867862909
    61   1      11.481577070614062      19.850237502772245      3.4862367763161961
    62   1      11.762946703282346      21.600713881641298      1.7431183867756725
    63   1      12.043406370530571       23.39042803665339      3.4862367763096946
    64   1      12.323298062484291      25.188733340915633       1.743118386763016
    65   1      17.827912853691995      15.000000000014523      3.4862367763223143
    66   1    0.053013478374906532      14.999999999939689      3.4862367762829547
    67   1      10.654521649770656      15.000000000111868      1.7431183868093678
    68   1      19.565852227827637      14.999999999995794      1.7431183867979239
    69   1      5.4194956433265942      14.999999999998806       3.486236776326165
    70   1       7.226404682292987      15.000000000003354      1.7431183867916982
    71   1      8.9643440564220569      15.000000000030695      3.4862367763273601
    72   1      3.6292566253550675      15.000000000025324      1.7431183867835545
    73   1      14.230764796749328      15.000000000002956      3.4862367763280639
    74   1      20.927649011575909      6.3020317011687013      3.4862367763676834
    75   1      20.303656067313419      9.8306609267683172      3.4862367763441289
    76   1       20.62861428307993      8.0775004503854007      1.7431183868178564
    77   1      19.677311356706195      13.242623059788031      3.4862367763217619
    78   1      19.986630627902912      11.563087611624411      1.7431183867993556
    79   1       17.47470292438943      5.6759397332200336      3.4862367763855033
    80   1      19.203222536959839      5.9850146753786788      1.7431183868342204
    81   1      18.901559801411292       7.751139401581213      3.4862367763647599
    82   1       16.89002009465904      9.2283830215609015       3.486236776364334
    83   1      18.579659592664672      9.5247738394680397      1.7431183868149158
    84   1      17.182228975520442      7.4446730891881998       1.743118386836769
    85   1      18.227649200604056      11.319471036299191      3.4862367763429831
    86   1       16.26906611402973      13.062459066751103      3.4862367763371291
    87   1       17.93448098176194      13.164865992175834      1.7431183867945304
    88   1      16.596122883607627      11.077557472732053      1.7431183868123767
    89   1      14.033456577195365      5.0973106158296275       3.486236776412162
    90   1      15.749799532152144       5.381802937343636      1.7431183868596529
    91   1      15.466201247852389      7.1640284699078762      3.4862367763880773
    92   1      13.495708267799417       8.696790935400017      3.4862367763819226
    93   1      15.203615791281665      8.9646930037580859      1.7431183868338815
    94   1        13.7549115660411      6.8943130100109471      1.7431183868596289
    95   1      14.973505822058122      10.796643823795975      3.4862367763576461
    96   1      13.029388061727948      12.201755347614693      3.4862367763513791
    97   1       14.73100365502386      12.688877456784411      1.7431183868047309
    98   1      13.254923992792195      10.480923076457088      1.7431183868255742
    99   1      12.714855745401453      13.825985990555495      1.7431183868104956
   100   1      1.1614385318866165      8.3992861183779866      3.4862367763545206
   101   1      0.5833402749365707      11.831503246279965      3.4862367763210291
   102   1      12.323298062523181      4.8112666590843531      1.7431183868821005
   103   1      12.043406370568501      6.6095719633518399       3.486236776407615
   104   1      10.027106111687095      8.0775004503872339      3.4862367763950353
   105   1      11.762946703313881      8.3992861183745475      1.7431183868496827
   106   1      10.326140840175929      6.3020317011833527      1.7431183868723286
   107   1      11.481577070643089      10.149762497225396      3.4862367763693025
   108   1      9.3851224564941127      11.563087611629712       3.486236776356507
   109   1       11.18484844634326      11.831503246269904      1.7431183868186972
   110   1      9.7021478959190759      9.8306609267629028      1.7431183868368447
   111   1      10.967657062555364      13.476801789411411      3.4862367763318867
   112   1      9.0758031852344718      13.242623059678067      1.7431183868070199
   113   1      8.6017143655538426      5.9850146753968545      3.4862367764114297
   114   1      6.5807208041042538      7.4446730891911557       3.486236776392051
   115   1      8.3000516300152025      7.7511394015838846      1.7431183868565809
   116   1      6.8731947529751913      5.6759397332386499      1.7431183868652775
   117   1      7.9781514212791631      9.5247738394531893      3.4862367763778144
   118   1       5.994614712152571      11.077557472713607      3.4862367763588566
   119   1      7.6261410292484983      11.319471036328451      1.7431183868200681
   120   1      6.2885119232221571      9.2283830215442038      1.7431183868360973
   121   1      7.3329728103737972      13.164865992149828      3.4862367763407551
   122   1      5.6675579425952058      13.062459066719498      1.7431183868000373
   123   1      5.1482913607419398      5.3818029373605327      3.4862367763951005
   124   1      3.1534033946125666      6.8943130100065844      3.4862367763740409
   125   1      4.8646930764418945      7.1640284699131769      1.7431183868436821
   126   1       3.431948405782538      5.0973106158372303      1.7431183868452238
   127   1      4.6021076198753814      8.9646930037637702      3.4862367763687652
   128   1      2.6534158213576364      10.480923076437364      3.4862367763439956
   129   1      4.3719976506800142       10.79664382377311      1.7431183868151177
   130   1      2.8942000963612631      8.6967909354001875      1.7431183868208033
   131   1      4.1294954836747184      12.688877456745502      3.4862367763383522
   132   1      2.1133475739430954      13.825985990566124      3.4862367763214497
   133   1      2.4278798902881462       12.20175534761961      1.7431183867964606
   134   1       0.880068899219689      10.149762497223008      1.7431183868049283
   135   1     0.36614889114718863      13.476801789466123       1.743118386815242
   136   1      1.7217898911206384      4.8112666590850637       3.486236776377527
   137   1      1.4418981991495474      6.6095719633452177      1.7431183868283895
   138   1      16.021003814734474      15.000000000016144       1.743118386787921
   139   1      9.0758031852892476      16.757376940230415      5.2293551658664503
   140   1      9.7021478959000529      20.169339073231868      5.2293551658578972
   141   1      9.3851224564837992      18.436912388408047 -2.7597096629380776e-09
   142   1      10.326140840138708      23.697968298816619      5.2293551658494266
   143   1      10.027106111657803      21.922499549624973 -2.7642551642029122e-09
   144   1      5.6675579425973268      16.937540933279564      5.2293551658638719
   145   1      7.3329728103690579      16.835134007838178 -2.7555898961816031e-09
   146   1       7.626141029217508      18.680528963709861      5.2293551658619624
   147   1      6.2885119232069924      20.771616978445081      5.2293551658649102
   148   1      7.9781514212624955      20.475226160540274 -2.7582636625248792e-09
   149   1      5.9946147121495832      18.922442527288752 -2.7548714753538241e-09
   150   1       8.300051629986589      22.248860598423306      5.2293551658582675
   151   1      6.8731947529267847      24.324060266746415      5.2293551658623576
   152   1      8.6017143655130663      24.014985324596296 -2.7641096088933225e-09
   153   1       6.580720804071424      22.555326910808219 -2.7540045447785068e-09
   154   1       2.427879890271059      17.798244652367003      5.2293551658686876
   155   1      4.1294954836735673      17.311122543243386 -2.7545494416174513e-09
   156   1      2.1133475739527663       16.17401400946801 -2.7603428974716783e-09
   157   1      4.3719976506859783      19.203356176227885      5.2293551658672746
   158   1      2.8942000963396834      21.303209064583598      5.2293551658753579
   159   1      4.6021076198581321       21.03530699622516 -2.7484588677868832e-09
   160   1      2.6534158213530432      19.519076923563802 -2.7510056917796448e-09
   161   1      4.8646930764067289      22.835971530076193      5.2293551658721302
   162   1      3.4319484057256342      24.902689384135471      5.2293551658795252
   163   1      5.1482913606879528      24.618197062617867 -2.7467465740332719e-09
   164   1      3.1534033945741839      23.105686989974231  -2.739866377420369e-09
   165   1     0.36614889116755678        16.5231982106217      5.2293551658934847
   166   1      19.986630627885095      18.436912388373514      5.2293551658710795
   167   1     0.58334027492912455      18.168496753711679  -2.763024345353621e-09
   168   1      19.677311356657139      16.757376940309314 -2.7615767692401835e-09
   169   1     0.88006889921058018      19.850237502785632      5.2293551658747548
   170   1      20.628614283046954      21.922499549599252      5.2293551658789594
   171   1      1.1614385318616782      21.600713881603156 -2.7412380244785327e-09
   172   1      20.303656067287747      20.169339073244942 -2.7475268410954368e-09
   173   1      1.4418981991096673      23.390428036630908      5.2293551658828639
   174   1      1.7217898910657268      25.188733340884937 -2.7346551428045009e-09
   175   1       20.92764901153328      23.697968298809229 -2.7356567957502639e-09
   176   1       17.93448098175616      16.835134007866316        5.22935516586515
   177   1      16.596122883576101      18.922442527286336       5.229355165865111
   178   1      18.227649200601807      18.680528963693178 -2.7524454878731511e-09
   179   1      16.269066114010052       16.93754093328144 -2.7566782126405182e-09
   180   1      18.579659592635263      20.475226160549511      5.2293551658717314
   181   1      17.182228975480367      22.555326910810123       5.229355165869074
   182   1      18.901559801373853      22.248860598408697 -2.7431439323990277e-09
   183   1       16.89002009462255      20.771616978463214 -2.7508043960740956e-09
   184   1      19.203222536918769      24.014985324606357      5.2293551658775916
   185   1      17.474702924349121      24.324060266773415 -2.7495611685854204e-09
   186   1      12.714855745358506      16.174014009426543      5.2293551658594764
   187   1       14.73100365502888      17.311122543254811      5.2293551658612838
   188   1      13.254923992760927      19.519076923549989       5.229355165858645
   189   1       14.97350582202146      19.203356176216573 -2.7567726561736011e-09
   190   1      13.029388061733313      17.798244652431606 -2.7617594519866579e-09
   191   1      15.203615791247936      21.035306996262364       5.229355165862728
   192   1      13.754911566001388      23.105686989996542      5.2293551658536721
   193   1      15.466201247812382      22.835971530096344 -2.7572789483566873e-09
   194   1      13.495708267765567      21.303209064618983 -2.7610859386156939e-09
   195   1      15.749799532114029      24.618197062656492      5.2293551658566972
   196   1      14.033456577156933      24.902689384173499 -2.7707808282620108e-09
   197   1      10.967657062512647      16.523198210505683 -2.7637566520397572e-09
   198   1      11.184848446329788      18.168496753772985      5.2293551658648978
   199   1      11.481577070614062      19.850237502772245 -2.7624112009980684e-09
   200   1      11.762946703282346      21.600713881641298      5.2293551658542787
   201   1      12.043406370530571       23.39042803665339 -2.7689121462596658e-09
   202   1      12.323298062484291      25.188733340915633      5.2293551658416231
   203   1      17.827912853691995      15.000000000014523 -2.7562911812692814e-09
   204   1    0.053013478374906532      14.999999999939689 -2.7956510899488737e-09
   205   1      10.654521649770656      15.000000000111868      5.2293551658879736
   206   1      19.565852227827637      14.999999999995794      5.2293551658765303
   207   1      5.4194956433265942      14.999999999998806 -2.7524423364726725e-09
   208   1       7.226404682292987      15.000000000003354      5.2293551658703041
   209   1      8.9643440564220569      15.000000000030695 -2.7512471678412914e-09
   210   1      3.6292566253550675      15.000000000025324      5.2293551658621595
   211   1      14.230764796749328      15.000000000002956 -2.7505427313531346e-09
   212   1      20.927649011575909      6.3020317011687013 -2.7109227336528208e-09
   213   1      20.303656067313419      9.8306609267683172 -2.7344770886774791e-09
   214   1       20.62861428307993      8.0775004503854007      5.2293551658964628
   215   1      19.677311356706195      13.242623059788031 -2.7568454338283959e-09
   216   1      19.986630627902912      11.563087611624411      5.2293551658779611
   217   1       17.47470292438943      5.6759397332200336 -2.6931029426859518e-09
   218   1      19.203222536959839      5.9850146753786788      5.2293551659128257
   219   1      18.901559801411292       7.751139401581213 -2.7138473317779139e-09
   220   1       16.89002009465904      9.2283830215609015 -2.7142730662862744e-09
   221   1      18.579659592664672      9.5247738394680397       5.229355165893522
   222   1      17.182228975520442      7.4446730891881998      5.2293551659153756
   223   1      18.227649200604056      11.319471036299191 -2.7356227212325928e-09
   224   1       16.26906611402973      13.062459066751103 -2.7414764476209666e-09
   225   1       17.93448098176194      13.164865992175834      5.2293551658731365
   226   1      16.596122883607627      11.077557472732053      5.2293551658909827
   227   1      14.033456577195365      5.0973106158296275 -2.6664445566714697e-09
   228   1      15.749799532152144       5.381802937343636      5.2293551659382587
   229   1      15.466201247852389      7.1640284699078762 -2.6905283469764759e-09
   230   1      13.495708267799417       8.696790935400017  -2.696683918441908e-09
   231   1      15.203615791281665      8.9646930037580859      5.2293551659124882
   232   1        13.7549115660411      6.8943130100109471      5.2293551659382338
   233   1      14.973505822058122      10.796643823795975 -2.7209613229137981e-09
   234   1      13.029388061727948      12.201755347614693 -2.7272268979521752e-09
   235   1       14.73100365502386      12.688877456784411      5.2293551658833364
   236   1      13.254923992792195      10.480923076457088      5.2293551659041801
   237   1      12.714855745401453      13.825985990555495      5.2293551658891007
   238   1      1.1614385318866165      8.3992861183779866 -2.7240855425629362e-09
   239   1      0.5833402749365707      11.831503246279965 -2.7575762632955581e-09
   240   1      12.323298062523181      4.8112666590843531      5.2293551659607065
   241   1      12.043406370568501      6.6095719633518399 -2.6709915351552784e-09
   242   1      10.027106111687095      8.0775004503872339 -2.6835707440893254e-09
   243   1      11.762946703313881      8.3992861183745475      5.2293551659282889
   244   1      10.326140840175929      6.3020317011833527      5.2293551659509339
   245   1      11.481577070643089      10.149762497225396 -2.7093048834322924e-09
   246   1      9.3851224564941127      11.563087611629712 -2.7220991754489813e-09
   247   1       11.18484844634326      11.831503246269904      5.2293551658973039
   248   1      9.7021478959190759      9.8306609267629028      5.2293551659154502
   249   1      10.967657062555364      13.476801789411411 -2.7467187038352922e-09
   250   1      9.0758031852344718      13.242623059678067      5.2293551658856261
   251   1      8.6017143655538426      5.9850146753968545 -2.6671767648763409e-09
   252   1      6.5807208041042538      7.4446730891911557 -2.6865556127485652e-09
   253   1      8.3000516300152025      7.7511394015838846      5.2293551659351865
   254   1      6.8731947529751913      5.6759397332386499      5.2293551659438835
   255   1      7.9781514212791631      9.5247738394531893 -2.7007928522592389e-09
   256   1       5.994614712152571      11.077557472713607 -2.7197505942425554e-09
   257   1      7.6261410292484983      11.319471036328451      5.2293551658986734
   258   1      6.2885119232221571      9.2283830215442038      5.2293551659147033
   259   1      7.3329728103737972      13.164865992149828 -2.7378521401084339e-09
   260   1      5.6675579425952058      13.062459066719498      5.2293551658786432
   261   1      5.1482913607419398      5.3818029373605327 -2.6835056479731964e-09
   262   1      3.1534033946125666      6.8943130100065844 -2.7045658664818395e-09
   263   1      4.8646930764418945      7.1640284699131769      5.2293551659222883
   264   1       3.431948405782538      5.0973106158372303      5.2293551659238284
   265   1      4.6021076198753814      8.9646930037637702 -2.7098420987325716e-09
   266   1      2.6534158213576364      10.480923076437364 -2.7346118110479249e-09
   267   1      4.3719976506800142       10.79664382377311      5.2293551658937236
   268   1      2.8942000963612631      8.6967909354001875      5.2293551658994097
   269   1      4.1294954836747184      12.688877456745502 -2.7402534087916058e-09
   270   1      2.1133475739430954      13.825985990566124 -2.7571566346256247e-09
   271   1      2.4278798902881462       12.20175534761961      5.2293551658750665
   272   1       0.880068899219689      10.149762497223008      5.2293551658835344
   273   1     0.36614889114718863      13.476801789466123       5.229355165893848
   274   1      1.7217898911206384      4.8112666590850637 -2.7010793342589661e-09
   275   1      1.4418981991495474      6.6095719633452177      5.2293551659069957
   276   1      16.021003814734474      15.000000000016144      5.2293551658665258
