(written by ASE)

100 atoms
1 atom types

0.0      7.7997161837012907  xlo xhi
0.0                      30  ylo yhi
0.0      6.9724735581572146  zlo zhi

Atoms # atomic

     1   1     0.17611319476425183      18.437649615289629      1.7431182591012329
     2   1      7.2035718596300322      16.625336570384945      3.4862367156721779
     3   1      3.3037137634521572      16.625336564152917      1.7431183269629777
     4   1       4.846726004994041      16.160094772443713      3.4862367080215906
     5   1      5.6842310898241308      17.593729403157695      1.7431182886557823
     6   1      4.8790537853404201       20.01396739494696      1.7431182301888883
     7   1       6.438012381636196      19.173520099084101       3.486236635744556
     8   1      4.0759712918212978      18.437649610594832      3.4862366512563545
     9   1      7.2097365596900449      20.827102325329321      1.7431182049890466
    10   1      6.4332285657392267      23.245147665233688      1.7431181380720864
    11   1     0.19527301907882924      22.436722353343555      3.4862365555616508
    12   1      5.6554626298688131      21.620526573501394      3.4862365699222382
    13   1      7.2142706313209075      24.860702645120568      3.4862364933908272
    14   1     0.94686791971079465      16.160094767226354      1.7431183173893405
    15   1      1.7843729964533592      17.593729396127088      3.4862366785847168
    16   1      2.5381542891886966      19.173520098555542      1.7431182475879305
    17   1      1.7556045381830669      21.620526586738734      1.7431181780999738
    18   1       3.309878470870689      20.827102318939367      3.4862365924923755
    19   1      0.9791956895760594      20.013967394032562      3.4862366186322578
    20   1      4.0951311058638007      22.436722349183924      1.7431181621516993
    21   1       3.314412544798329      24.860702633553359      1.7431181066174009
    22   1      4.8745864349105554      24.050598616783816      3.4862365142820853
    23   1      2.5333704730777704      23.245147665812908      3.4862365317766799
    24   1     0.97472834674941911       24.05059860730897      1.7431181277884085
    25   1      6.9880490960192638      13.318039086000567  2.0452486299335351e-07
    26   1      6.2265266934846135      14.994512939087244       1.743118447416468
    27   1      6.9966040264944391      5.1392973548794316  2.4819704271244754e-07
    28   1      5.4372665794178605      8.3777615011655371  2.2372268171802348e-07
    29   1      6.9930007198917572      9.1736933218711982      1.7431186232906639
    30   1      6.2157559505784068      6.7547936668876218      1.7431186332656998
    31   1       6.218355283362456      10.819476025628617  2.3494418489721612e-07
    32   1      3.8625066830290882      11.567440985283824  2.3252977044239323e-07
    33   1      5.4614778561851676      12.416819923574522      1.7431186161543968
    34   1      4.6612632155290123       9.988576729332209      1.7431186275441131
    35   1      4.6257107619322513      13.870579763099002  2.3584389092383861e-07
    36   1      2.3266685965691667       14.99451293303963  6.2714354910355809e-08
    37   1      3.0881910125178509      13.318039087235931      1.7431185963484248
    38   1      4.6567892260370964      5.9489277671390681  2.4044901195862146e-07
    39   1      2.3158978568863828      6.7547936778948809   2.435374010706531e-07
    40   1      3.8774412325243874      7.5638006448933623      1.7431186268694721
    41   1       3.096745929903665      5.1392973617035409      1.7431186381978261
    42   1      3.0931426314275186       9.173693327520084    2.32978278250866e-07
    43   1     0.76140512656456538      9.9885767293011867   2.407068269484542e-07
    44   1      2.3184971923923161      10.819476021258552      1.7431186226856827
    45   1      1.5374084901366587      8.3777614983716262      1.7431186203761364
    46   1      1.5616197551788891      12.416819919071372   2.266416976295757e-07
    47   1       0.725852671575686      13.870579760610013      1.7431186266261127
    48   1       7.762364776694656       11.56744098883334      1.7431186196279538
    49   1     0.75693113003611556      5.9489277599302426      1.7431186298654608
    50   1      7.7772993241035202      7.5638006403337954  2.3360645222618647e-07
    51   1     0.17611319476425183      18.437649615289629      5.2293550381798397
    52   1      7.2035718596300322      16.625336570384945 -6.3406429340767721e-08
    53   1      3.3037137634521572      16.625336564152917      5.2293551060415844
    54   1       4.846726004994041      16.160094772443713 -7.1057016625218144e-08
    55   1      5.6842310898241308      17.593729403157695      5.2293550677343879
    56   1      4.8790537853404201       20.01396739494696      5.2293550092674952
    57   1       6.438012381636196      19.173520099084101 -1.4333405106851377e-07
    58   1      4.0759712918212978      18.437649610594832   -1.27822251466873e-07
    59   1      7.2097365596900449      20.827102325329321       5.229354984067653
    60   1      6.4332285657392267      23.245147665233688      5.2293549171506912
    61   1     0.19527301907882924      22.436722353343555 -2.2351695553732705e-07
    62   1      5.6554626298688131      21.620526573501394 -2.0915636971952816e-07
    63   1      7.2142706313209075      24.860702645120568 -2.8568777914995787e-07
    64   1     0.94686791971079465      16.160094767226354      5.2293550964679456
    65   1      1.7843729964533592      17.593729396127088 -1.0049389021783233e-07
    66   1      2.5381542891886966      19.173520098555542      5.2293550266665374
    67   1      1.7556045381830669      21.620526586738734      5.2293549571785807
    68   1       3.309878470870689      20.827102318939367 -1.8658622976001139e-07
    69   1      0.9791956895760594      20.013967394032562 -1.6044634898420572e-07
    70   1      4.0951311058638007      22.436722349183924       5.229354941230306
    71   1       3.314412544798329      24.860702633553359       5.229354885696007
    72   1      4.8745864349105554      24.050598616783816 -2.6479652140225676e-07
    73   1      2.5333704730777704      23.245147665812908 -2.4730192640517784e-07
    74   1     0.97472834674941911       24.05059860730897      5.2293549068670142
    75   1      6.9880490960192638      13.318039086000567      3.4862369836034697
    76   1      6.2265266934846135      14.994512939087244      5.2293552264950742
    77   1      6.9966040264944391      5.1392973548794316      3.4862370272756493
    78   1      5.4372665794178605      8.3777615011655371      3.4862370028012881
    79   1      6.9930007198917572      9.1736933218711982      5.2293554023692694
    80   1      6.2157559505784068      6.7547936668876218      5.2293554123443045
    81   1       6.218355283362456      10.819476025628617      3.4862370140227914
    82   1      3.8625066830290882      11.567440985283824      3.4862370116083765
    83   1      5.4614778561851676      12.416819923574522      5.2293553952330027
    84   1      4.6612632155290123       9.988576729332209      5.2293554066227195
    85   1      4.6257107619322513      13.870579763099002       3.486237014922497
    86   1      2.3266685965691667       14.99451293303963      3.4862368417929614
    87   1      3.0881910125178509      13.318039087235931      5.2293553754270308
    88   1      4.6567892260370964      5.9489277671390681      3.4862370195276182
    89   1      2.3158978568863828      6.7547936778948809      3.4862370226160073
    90   1      3.8774412325243874      7.5638006448933623      5.2293554059480778
    91   1       3.096745929903665      5.1392973617035409      5.2293554172764312
    92   1      3.0931426314275186       9.173693327520084      3.4862370120568844
    93   1     0.76140512656456538      9.9885767293011867      3.4862370197854329
    94   1      2.3184971923923161      10.819476021258552      5.2293554017642885
    95   1      1.5374084901366587      8.3777614983716262      5.2293553994547413
    96   1      1.5616197551788891      12.416819919071372      3.4862370057203038
    97   1       0.725852671575686      13.870579760610013      5.2293554057047187
    98   1       7.762364776694656       11.56744098883334      5.2293553987065593
    99   1     0.75693113003611556      5.9489277599302426       5.229355408944067
   100   1      7.7772993241035202      7.5638006403337954      3.4862370126850579
