(written by ASE)

224 atoms
1 atom types

0.0      17.775868322703069  xlo xhi
0.0                      30  ylo yhi
0.0      6.9724735581572146  zlo zhi

Atoms # atomic

     1   1       14.33079097632158       16.52723548763845  3.8014750225741989e-08
     2   1      14.961405082315784      19.884441884358893  7.7337295408857679e-08
     3   1      14.597157621786289      18.188161697106523      1.7431184885122353
     4   1      15.307071293444583      21.645714496540421      1.7431184737715191
     5   1      12.292035545019338      14.999999973663421  6.8126998780671242e-08
     6   1       10.76168756487408      16.916076329424868  7.9852598995554184e-08
     7   1      12.444698213449371      16.786169376885937      1.7431184833821809
     8   1      10.496057833919227      14.999999988334196      1.7431184772764172
     9   1      12.837391327015975      18.503563478598807  7.6480359992563609e-08
    10   1      11.525756189390522      20.634875260222742  8.1084897722814161e-08
    11   1       13.22619466508416       20.26737430163837      1.7431184737372085
    12   1      11.155834199785787      18.849042007980898       1.743118472738719
    13   1      13.594253647264141       22.02194042212534  8.2316081740636249e-08
    14   1      12.223932043253894      24.152639961011573  8.5313255436968604e-08
    15   1      13.938398372759684      23.788352021382224      1.7431184750009709
    16   1      11.876730590738552      22.394508228694662      1.7431184728668534
    17   1      8.7047103202017482      14.999999980548637  8.5452814419298373e-08
    18   1      7.5379192060066487      17.788414061133409  8.5681763467081654e-08
    19   1      9.2241447640081322      17.287036734879564      1.7431184716607027
    20   1      7.1858010829818468      16.171706673800401      1.7431184642763469
    21   1      9.5226584203672857       19.16393852677669  8.1243225264617292e-08
    22   1        8.12682010098146      21.294604388596611  8.2472763069614528e-08
    23   1      9.8260415185062069      20.972972631058184      1.7431184714077208
    24   1      7.8180091613952039       19.51092060020099      1.7431184689558556
    25   1      10.162435896960327      22.746458893083542  8.3250364243937407e-08
    26   1      8.7984216452128514      24.864211177410937  8.6905128958798413e-08
    27   1      10.508200154073609       24.51222296929285      1.7431184754737474
    28   1      8.4564189028817189      23.085724534236789      1.7431184734712406
    29   1      3.4041013820487644      15.000000000517417  9.7470995775609033e-08
    30   1      5.4428568187121158       16.52723548623635  1.1850257465214932e-07
    31   1      3.9494571608171851      18.503563486000075  8.5577657641651082e-08
    32   1      5.7092234667231949      18.188161701528401      1.7431184582636259
    33   1      3.5567640559554841      16.786169377522498      1.7431184632155097
    34   1      6.0734709223407899      19.884441874803059  8.5121456378279526e-08
    35   1      4.7063194779050335      22.021940410185437  8.3807500039045748e-08
    36   1      6.4191371296128512      21.645714481039334      1.7431184711867214
    37   1      4.3382604956189841      20.267374293467668      1.7431184695131656
    38   1      6.7565492967373233      23.429752517121557  8.5164620519742705e-08
    39   1      5.0504642059143103      23.788352005920018      1.7431184754623421
    40   1      5.1095497098609579      14.999999967551418      1.7431184232997825
    41   1      17.592644476792767      15.000000031053304  8.3894288721885731e-08
    42   1      1.6081236678356263      15.000000001620549       1.743118471802112
    43   1      1.8737533930968091      16.916076341151353  8.3393906104065371e-08
    44   1     0.63472424409004791      19.163938535256619  8.0754209945284547e-08
    45   1      2.2679000201270916      18.849042018101869      1.7431184693303281
    46   1     0.33621058507390839      17.287036737958658      1.7431184709365215
    47   1      2.6378220132904562       20.63487525837192  8.2412716875789279e-08
    48   1      1.2745017305907174      22.746458902267875  8.4713806477007476e-08
    49   1      2.9887964202539066      22.394508226255113       1.743118473417564
    50   1     0.93810734481723368      20.972972637290155      1.7431184719812729
    51   1      3.3359978798137515      24.152639956918165  8.7183603742316591e-08
    52   1      1.6202659963193631      24.512222978046111      1.7431184776115882
    53   1      16.073735234763138      16.171706680667796      1.7431184799467161
    54   1      16.425853351059224      17.788414060199074  7.5642562243523915e-08
    55   1      16.705943311365843      19.510920608731084       1.743118473366488
    56   1      17.014754255269136      21.294604402101925  8.2021231689345437e-08
    57   1      15.644483463562322      23.429752537738381  8.5071630471649085e-08
    58   1      17.344353064757531      23.085724552673753      1.7431184749170203
    59   1      17.686355813293194      24.864211195351572  8.8493987870626975e-08
    60   1      13.997483870686949       14.99999992046898      1.7431185387230692
    61   1      17.014754312649156      8.7053956022558623  8.3636899860486359e-08
    62   1      17.344353121627737      6.9142754574070011      1.7431184705808209
    63   1       16.42585340677017      12.211585930746907  8.1676330800215043e-08
    64   1      16.705943361249606      10.489079400417154      1.7431184782190461
    65   1      16.073735244798307      13.828293352572885      1.7431184856227941
    66   1      15.644483516915157      6.5702474756909908  7.9114252256476127e-08
    67   1      13.594253695101017      7.9780595827928522  8.1093648669535981e-08
    68   1      15.307071345630556      8.3542855100596256      1.7431184737921983
    69   1      13.938398425243326      6.2116479895200598      1.7431184675836056
    70   1       14.96140513034387      10.115558128446594   8.095995779185928e-08
    71   1      12.837391367795954      11.496436496543737  8.0828051985590968e-08
    72   1      14.597157667842493        11.8118382851234       1.743118492428116
    73   1      13.226194709238325      9.7326257086441927       1.743118476515054
    74   1      14.330790990982166      13.472764569225617  4.0681085369728104e-08
    75   1      12.444698276948422      13.213830663892068      1.7431184867902596
    76   1      12.223932097583933      5.8473600417779892  7.6396858614347511e-08
    77   1      10.162435943428507      7.2535410960392426  8.0146635788559069e-08
    78   1      11.876730635278536      7.6054917692845265      1.7431184706366409
    79   1      10.508200212128141      5.4877770223853872      1.7431184652097451
    80   1      11.525756224011616      9.3651247424164978  8.3411374907803973e-08
    81   1      9.5226584463954236      10.836061464261249  8.6198105564774079e-08
    82   1      11.155834209016232      11.150957958065177        1.74311847746044
    83   1      9.8260415559394083      9.0270273629981119      1.7431184734166651
    84   1      10.761687574939625      13.083923648729183  8.4269558278687429e-08
    85   1      9.2241447889353569      12.712963253856557      1.7431184771001349
    86   1      8.7984217056200258      5.1357888046484135  7.5432813103154459e-08
    87   1      6.7565493529785803        6.57024746418071  8.0231888754553497e-08
    88   1      8.4564189525761382      6.9142754475247727      1.7431184694928439
    89   1       8.126820139999607      8.7053955968909804   8.415552426149389e-08
    90   1      6.0734709637803759      10.115558129090203  8.9320404730764485e-08
    91   1      7.8180091889417138      10.489079398956378      1.7431184739503562
    92   1      6.4191371805116377        8.35428550546618       1.743118472208981
    93   1      7.5379192335943399      12.211585936330877  9.1564021256647934e-08
    94   1      5.4428568280413616      13.472764571095155  1.2119434051470109e-07
    95   1      7.1858010779976533      13.828293346424388      1.7431184701440652
    96   1      5.7092234981189955      11.811838296777111      1.7431184628208996
    97   1      3.3359979405042868      5.8473600373651635  7.9652968903639148e-08
    98   1      5.0504642656155445      6.2116479798259547      1.7431184693945856
    99   1      4.7063195368452346      7.9780595795801474  8.3952757147365273e-08
   100   1      2.6378220736869107      9.3651247454903626  8.5848266332612978e-08
   101   1      4.3382605504011202      9.7326257100469178      1.7431184732793794
   102   1      2.9887964824653439      7.6054917699733977      1.7431184722947333
   103   1       3.949457205386476      11.496436512425362  9.0686355337120264e-08
   104   1       1.873753415481946      13.083923664222453  8.8388802789013872e-08
   105   1      3.5567641054581545      13.213830669621814      1.7431184671340483
   106   1      2.2679000601121095       11.15095797291886      1.7431184748211948
   107   1      17.686355869979476      5.1357888144610939  7.6758910114249455e-08
   108   1      1.6202660550224555      5.4877770252430196      1.7431184681074752
   109   1      1.2745017918847261      7.2535411015807938  8.2127380311654768e-08
   110   1      0.9381074074803496      9.0270273673024946      1.7431184744889996
   111   1     0.63472429573598377      10.836061471281241  8.6326511149923669e-08
   112   1     0.33621063782383787      12.712963253963025      1.7431184767416721
   113   1       14.33079097632158       16.52723548763845       3.486236817093356
   114   1      14.961405082315784      19.884441884358893      3.4862368564159016
   115   1      14.597157621786289      18.188161697106523       5.229355267590841
   116   1      15.307071293444583      21.645714496540421      5.2293552528501257
   117   1      12.292035545019338      14.999999973663421      3.4862368472056051
   118   1       10.76168756487408      16.916076329424868      3.4862368589312047
   119   1      12.444698213449371      16.786169376885937      5.2293552624607873
   120   1      10.496057833919227      14.999999988334196      5.2293552563550234
   121   1      12.837391327015975      18.503563478598807      3.4862368555589662
   122   1      11.525756189390522      20.634875260222742      3.4862368601635039
   123   1       13.22619466508416       20.26737430163837      5.2293552528158154
   124   1      11.155834199785787      18.849042007980898      5.2293552518173261
   125   1      13.594253647264141       22.02194042212534      3.4862368613946879
   126   1      12.223932043253894      24.152639961011573      3.4862368643918615
   127   1      13.938398372759684      23.788352021382224       5.229355254079576
   128   1      11.876730590738552      22.394508228694662      5.2293552519454582
   129   1      8.7047103202017482      14.999999980548637       3.486236864531421
   130   1      7.5379192060066487      17.788414061133409      3.4862368647603699
   131   1      9.2241447640081322      17.287036734879564      5.2293552507393084
   132   1      7.1858010829818468      16.171706673800401      5.2293552433549531
   133   1      9.5226584203672857       19.16393852677669      3.4862368603218314
   134   1        8.12682010098146      21.294604388596611      3.4862368615513692
   135   1      9.8260415185062069      20.972972631058184      5.2293552504863268
   136   1      7.8180091613952039       19.51092060020099      5.2293552480344605
   137   1      10.162435896960327      22.746458893083542      3.4862368623289708
   138   1      8.7984216452128514      24.864211177410937      3.4862368659837348
   139   1      10.508200154073609       24.51222296929285      5.2293552545523525
   140   1      8.4564189028817189      23.085724534236789      5.2293552525498477
   141   1      3.4041013820487644      15.000000000517417      3.4862368765496017
   142   1      5.4428568187121158       16.52723548623635      3.4862368975811808
   143   1      3.9494571608171851      18.503563486000075      3.4862368646562638
   144   1      5.7092234667231949      18.188161701528401       5.229355237342233
   145   1      3.5567640559554841      16.786169377522498      5.2293552422941154
   146   1      6.0734709223407899      19.884441874803059       3.486236864200063
   147   1      4.7063194779050335      22.021940410185437       3.486236862886106
   148   1      6.4191371296128512      21.645714481039334      5.2293552502653267
   149   1      4.3382604956189841      20.267374293467668       5.229355248591772
   150   1      6.7565492967373233      23.429752517121557      3.4862368642432267
   151   1      5.0504642059143103      23.788352005920018      5.2293552545409474
   152   1      5.1095497098609579      14.999999967551418      5.2293552023783878
   153   1      17.592644476792767      15.000000031053304      3.4862368629728953
   154   1      1.6081236678356263      15.000000001620549      5.2293552508807188
   155   1      1.8737533930968091      16.916076341151353       3.486236862472512
   156   1     0.63472424409004791      19.163938535256619      3.4862368598328159
   157   1      2.2679000201270916      18.849042018101869      5.2293552484089334
   158   1     0.33621058507390839      17.287036737958658      5.2293552500151277
   159   1      2.6378220132904562       20.63487525837192      3.4862368614913231
   160   1      1.2745017305907174      22.746458902267875      3.4862368637924122
   161   1      2.9887964202539066      22.394508226255113      5.2293552524961706
   162   1     0.93810734481723368      20.972972637290155      5.2293552510598786
   163   1      3.3359978798137515      24.152639956918165      3.4862368662622094
   164   1      1.6202659963193631      24.512222978046111      5.2293552566901944
   165   1      16.073735234763138      16.171706680667796      5.2293552590253212
   166   1      16.425853351059224      17.788414060199074      3.4862368547211688
   167   1      16.705943311365843      19.510920608731084      5.2293552524450932
   168   1      17.014754255269136      21.294604402101925      3.4862368610998375
   169   1      15.644483463562322      23.429752537738381      3.4862368641502366
   170   1      17.344353064757531      23.085724552673753      5.2293552539956263
   171   1      17.686355813293194      24.864211195351572      3.4862368675725941
   172   1      13.997483870686949       14.99999992046898      5.2293553178016747
   173   1      17.014754312649156      8.7053956022558623       3.486236862715506
   174   1      17.344353121627737      6.9142754574070011      5.2293552496594273
   175   1       16.42585340677017      12.211585930746907       3.486236860754937
   176   1      16.705943361249606      10.489079400417154      5.2293552572976516
   177   1      16.073735244798307      13.828293352572885      5.2293552647014003
   178   1      15.644483516915157      6.5702474756909908       3.486236858192858
   179   1      13.594253695101017      7.9780595827928522      3.4862368601722551
   180   1      15.307071345630556      8.3542855100596256      5.2293552528708043
   181   1      13.938398425243326      6.2116479895200598      5.2293552466622124
   182   1       14.96140513034387      10.115558128446594      3.4862368600385643
   183   1      12.837391367795954      11.496436496543737      3.4862368599066587
   184   1      14.597157667842493        11.8118382851234       5.229355271506722
   185   1      13.226194709238325      9.7326257086441927        5.22935525559366
   186   1      14.330790990982166      13.472764569225617      3.4862368197596911
   187   1      12.444698276948422      13.213830663892068      5.2293552658688656
   188   1      12.223932097583933      5.8473600417779892       3.486236855475465
   189   1      10.162435943428507      7.2535410960392426       3.486236859225242
   190   1      11.876730635278536      7.6054917692845265      5.2293552497152485
   191   1      10.508200212128141      5.4877770223853872      5.2293552442883513
   192   1      11.525756224011616      9.3651247424164978      3.4862368624899815
   193   1      9.5226584463954236      10.836061464261249      3.4862368652767119
   194   1      11.155834209016232      11.150957958065177       5.229355256539046
   195   1      9.8260415559394083      9.0270273629981119      5.2293552524952718
   196   1      10.761687574939625      13.083923648729183      3.4862368633481648
   197   1      9.2241447889353569      12.712963253856557      5.2293552561787404
   198   1      8.7984217056200258      5.1357888046484135      3.4862368545114188
   199   1      6.7565493529785803        6.57024746418071      3.4862368593104951
   200   1      8.4564189525761382      6.9142754475247727      5.2293552485714487
   201   1       8.126820139999607      8.7053955968909804      3.4862368632341307
   202   1      6.0734709637803759      10.115558129090203      3.4862368683990108
   203   1      7.8180091889417138      10.489079398956378      5.2293552530289622
   204   1      6.4191371805116377        8.35428550546618      5.2293552512875872
   205   1      7.5379192335943399      12.211585936330877      3.4862368706426272
   206   1      5.4428568280413616      13.472764571095155      3.4862369002729467
   207   1      7.1858010779976533      13.828293346424388      5.2293552492226718
   208   1      5.7092234981189955      11.811838296777111      5.2293552418995048
   209   1      3.3359979405042868      5.8473600373651635      3.4862368587315755
   210   1      5.0504642656155445      6.2116479798259547      5.2293552484731922
   211   1      4.7063195368452346      7.9780595795801474      3.4862368630313636
   212   1      2.6378220736869107      9.3651247454903626      3.4862368649268727
   213   1      4.3382605504011202      9.7326257100469178      5.2293552523579843
   214   1      2.9887964824653439      7.6054917699733977       5.229355251373339
   215   1       3.949457205386476      11.496436512425362      3.4862368697649613
   216   1       1.873753415481946      13.083923664222453      3.4862368674674094
   217   1      3.5567641054581545      13.213830669621814      5.2293552462126538
   218   1      2.2679000601121095       11.15095797291886      5.2293552538998007
   219   1      17.686355869979476      5.1357888144610939      3.4862368558375163
   220   1      1.6202660550224555      5.4877770252430196      5.2293552471860814
   221   1      1.2745017918847261      7.2535411015807938      3.4862368612059869
   222   1      0.9381074074803496      9.0270273673024946      5.2293552535676069
   223   1     0.63472429573598377      10.836061471281241      3.4862368654051177
   224   1     0.33621063782383787      12.712963253963025      5.2293552558202778
