(written by ASE)

288 atoms
1 atom types

0.0      22.325702763195491  xlo xhi
0.0                      30  ylo yhi
0.0      6.9724735581572146  zlo zhi

Atoms # atomic

     1   1       13.90702672250541      19.896309002366962     0.43135647037378716
     2   1      12.794993107432438      18.505961981622022      2.1744747666476805
     3   1      9.0471722917771853      18.989794234297108     0.43135626939682137
     4   1      10.398455092967327      17.831460757604106       2.174474553315652
     5   1      7.9755573764769014      17.599326483799928      2.1744744915701193
     6   1      11.442569452584832      19.398710517848002     0.43135637906854235
     7   1      11.184717411942591      21.969631166545184     0.43135666439124154
     8   1      12.535134896620169      20.953666737084887      2.1744749927372982
     9   1      10.114072261524486       20.46583861398301      2.1744748736094963
    10   1      13.639274841564138      22.371318236419739     0.43135673334286595
    11   1      13.370978069655724      24.871635524734984     0.43135695371132399
    12   1      12.274009377874689      23.450534841736811      2.1744752191984333
    13   1      4.1315613315206052      18.746201639892575     0.43135638249546931
    14   1      5.5105456485656887      17.535699360512979       2.174474499826514
    15   1      3.0257800861556285      17.454667777098337      2.1744745501724867
    16   1      6.6057404694290822      18.844904528268046     0.43135630106599315
    17   1      6.3197272398796311      21.401551161067658     0.43135660892443667
    18   1      7.6880994600024657      20.196819068353847      2.1744748183771669
    19   1      5.2288557242345979      20.061410049420175      2.1744748560229437
    20   1      8.7635888954720969       21.60277356349539     0.43135659346697636
    21   1      8.4853239714185484      24.186094655018678     0.43135687209550422
    22   1      9.8390001012388648      23.055416307160357      2.1744751479472315
    23   1      7.4044309334984737      22.775556483060484      2.1744751272342788
    24   1      10.919362650691099      24.520960597770141     0.43135690624898371
    25   1      21.561306449814875      17.831460793366631     0.43135621757775361
    26   1       1.632141801514337      18.505961812364575     0.43135643011955488
    27   1      1.3722834842343161      20.953666846243237      0.4313566524166737
    28   1       2.744175381572064      19.896308928414584      2.1744749001227457
    29   1     0.27971799857245488       19.39871056917778      2.1744748168838459
    30   1      3.8509769125117272      21.240676172824266     0.43135666147168644
    31   1      3.5768494187917534      23.747221741627413     0.43135690286998019
    32   1      4.9484106622163191      22.588498809282328      2.1744751546841763
    33   1      2.4764234462032766      22.371318257198226      2.1744751674155212
    34   1      6.0394490363037656      23.952753658222036     0.43135688147505818
    35   1        4.67186580907706      25.118664771612799      2.1744753874207601
    36   1      16.673397052838915      17.535699412339682     0.43135610029584853
    37   1      19.138408769630274      17.599326496254065     0.43135612172399174
    38   1      18.850950841469931       20.19681910207575     0.43135645407416268
    39   1      20.210023696547594      18.989794257693319      2.1744746971041047
    40   1      17.768591836735375      18.844904546508388      2.1744746908192778
    41   1      21.276923663170173      20.465838626266134     0.43135652732605184
    42   1      21.001851473632467      23.055416337956757     0.43135680318374664
    43   1    0.021866065749558294      21.969631169015173      2.1744751047467332
    44   1      19.926440263129695      21.602773589990136      2.1744750122099061
    45   1      1.1111580208504814      23.450534814197766     0.43135688126912447
    46   1      2.2081267030626508      24.871635523888244      2.1744753964505668
    47   1      22.082214022275455      24.520960621173288      2.1744753407743498
    48   1      14.188631515049426      17.454667641994661      0.4313561248938817
    49   1      15.294412764404804      18.746201663206591      2.1744747376579832
    50   1      16.391707116505362      20.061410057150624     0.43135645468139588
    51   1      16.111262030596034      22.588498836871139     0.43135673574048422
    52   1      17.482578632470624       21.40155118501346      2.1744749991868564
    53   1      15.013828270039589      21.240676184586363      2.1744750148223031
    54   1      18.567282316846786      22.775556499185427     0.43135673997815371
    55   1      19.648175356846426      24.186094675904741      2.1744752819848086
    56   1      17.202300405339329      23.952753678940496      2.1744752469508768
    57   1       14.73970079722695      23.747221746740877      2.1744752494144985
    58   1       15.83471718447848       25.11866478539406      0.4313569640198035
    59   1      21.912633191652471       14.99999996686833     0.43135576220876748
    60   1      20.493386121407685      16.321829443520954      2.1744743404097271
    61   1      21.276922828356309      9.5341613422737339     0.43135489937577426
    62   1      21.561306011126963      12.168539168976338     0.43135530561965457
    63   1       19.13840839032445      12.400673432344831     0.43135533911354551
    64   1      20.493385935540161      13.678170470788615      2.1744739247487019
    65   1      20.210023070279572      11.010205705621416      2.1744735234545685
    66   1      19.328558671913193      14.999999982211733     0.43135574258206089
    67   1      16.826464983287224      14.999999936619361     0.43135570854231653
    68   1      18.023508390526214      16.279821123201913      2.1744743401514635
    69   1      18.023508142727426      13.720178830999657      2.1744739270393318
    70   1      15.552807142600454      16.252012503992518      2.1744743768033072
    71   1      21.001850155466713      6.9445836936697845      0.4313545131613209
    72   1      18.567281060250153      7.2244434742713963     0.43135455133808942
    73   1      19.926439247587016      8.3972263880742162      2.1744731266836923
    74   1      19.648173815076944      5.8139053404250092      2.1744727409843088
    75   1      18.850950043108728      9.8031808844228863     0.43135494428287541
    76   1      16.391706390720209      9.9385898509871708     0.43135490334422794
    77   1      17.768591326861827      11.155095384970309      2.1744735326124638
    78   1      17.482577605438291      8.5984488052686174      2.1744731383689375
    79   1      16.673396652170059      12.464300618719193     0.43135528720656263
    80   1      14.188631138493417      12.545331932302162     0.43135517473696466
    81   1      15.552807103274246      13.747987398039299      2.1744739359590901
    82   1      15.294412120456235      11.253798365481913      2.1744734905065544
    83   1      14.341791717031624       15.00000020744028     0.43135563427035839
    84   1      11.687351916729046      16.762214248625924     0.43135601586495842
    85   1      13.098064990923209      16.154162040375581      2.1744745113356365
    86   1      13.098064569485276      13.845837883026064      2.1744738640908148
    87   1      15.834715498511015      4.8813352146059685     0.43135416959444495
    88   1      17.202298941164671      6.0472463016317874      2.1744727501067973
    89   1      16.111260808816674      7.4115011872957837     0.43135453216701536
    90   1      13.639273676933332      7.6286816869859422     0.43135452079331449
    91   1      15.013827378815744      8.7593237521327012      2.1744731007631737
    92   1      14.739699345864398       6.252778281915738      2.1744727432422875
    93   1      13.907026052536086      10.103691205664177     0.43135484343238834
    94   1         11.442568776221      10.601289405454509     0.43135495553329406
    95   1      12.794992720492164      11.494038187532652      2.1744734505889207
    96   1      12.535133945945443      9.0463331948414236      2.1744731129737778
    97   1       11.68735173676758      13.237785657096879     0.43135529602910383
    98   1      9.3305345333698373      13.678170480587056     0.43135551097614394
    99   1      10.749781807610477      14.999999968821044      2.1744741086773081
   100   1      10.398454624751727      12.168539191651945      2.1744736705595931
   101   1       9.330534763006467      16.321829443998865      0.4313559167109387
   102   1      6.8606569623032687      16.279821109899956     0.43135593868860328
   103   1      8.1657072697978048      14.999999963037936      2.1744741070713167
   104   1      13.370976439134367      5.1283645385084355     0.43135418174443918
   105   1      10.919361075891395      5.4790394325628995     0.43135424146395063
   106   1      12.274008050047453      6.5494652170887946      2.1744727681600344
   107   1      11.184716359553601      8.0303688702184957     0.43135460409609561
   108   1      8.7635878667218368      8.3972264130847805     0.43135471110967027
   109   1      10.114071479910498      9.5341613868502009      2.1744732585613389
   110   1      9.8389987887415451      6.9445837111514379      2.1744728690220407
   111   1      9.0471717160843159      11.010205726742242     0.43135511192643866
   112   1      6.6057399203284177      11.155095388308212     0.43135513836370387
   113   1      7.9755569951346388      12.400673449813155      2.1744737157111578
   114   1       7.688098663292406      9.8031808910781706       2.174473314946296
   115   1      6.8606567578536097      13.720178828263442     0.43135553321858583
   116   1      4.3899556296719533      13.747987390655709     0.43135556246193529
   117   1       5.663613568713477       14.99999993933352      2.1744740936058848
   118   1      5.5105452574376343       12.46430057907412      2.1744736810181617
   119   1      4.3899558118329631      16.252012497224541     0.43135600929302681
   120   1      1.9352134965781373      16.154162132593257     0.43135617554604738
   121   1      3.1789403135122569       14.99999999236843      2.1744740381442202
   122   1       8.485322453961496      5.8139053782562371     0.43135431921047629
   123   1      6.0394475678095514      6.0472463369493141     0.43135434558517532
   124   1      7.4044296977896451      7.2244435001302065      2.1744729204627982
   125   1      6.3197262425966629       8.598448823164091     0.43135473425616822
   126   1       3.850975991367279      8.7593237439162692     0.43135472258574198
   127   1       5.228855010735197      9.9385898652243441      2.1744732865712173
   128   1      4.9484094294638776      7.4115011944443268      2.1744729219861205
   129   1      4.1315607693452314      11.253798346707981     0.43135511373513941
   130   1      1.6321412616958137      11.494037988076769     0.43135508630976471
   131   1       3.025779787630992      12.545332043284333       2.174473579583037
   132   1      2.7441746332959753       10.10369112124269      2.1744732477683115
   133   1      1.9352132621258435      13.845837963576798     0.43135550596584976
   134   1     0.52450057926477422      16.762214264505133      2.1744744492457242
   135   1      0.5245002855137918      13.237785595165661      2.1744737026740037
   136   1      4.6718641279663666      4.8813352395471838      2.1744725468532278
   137   1      3.5768479676775753      6.2527782964042729      0.4313543557568838
   138   1      1.1111566395864585      6.5494651638549897     0.43135440651065399
   139   1       2.476422302000465      7.6286816824248262      2.1744729278609838
   140   1      2.2081250416682532      5.1283645316171373      2.1744725792100157
   141   1      1.3722825859290404      9.0463332629493038     0.43135474340275032
   142   1     0.27971744196035697      10.601289388415836      2.1744733675527712
   143   1     0.02186493955816645      8.0303688213909652      2.1744730219489079
   144   1      22.082212450175827      5.4790394085694913      2.1744726602450122
   145   1       13.90702672250541      19.896309002366962       3.917593249452394
   146   1      12.794993107432438      18.505961981622022      5.6607115457262855
   147   1      9.0471722917771853      18.989794234297108      3.9175930484754278
   148   1      10.398455092967327      17.831460757604106      5.6607113323942579
   149   1      7.9755573764769014      17.599326483799928      5.6607112706487257
   150   1      11.442569452584832      19.398710517848002      3.9175931581471484
   151   1      11.184717411942591      21.969631166545184      3.9175934434698476
   152   1      12.535134896620169      20.953666737084887      5.6607117718159028
   153   1      10.114072261524486       20.46583861398301      5.6607116526881018
   154   1      13.639274841564138      22.371318236419739      3.9175935124214716
   155   1      13.370978069655724      24.871635524734984      3.9175937327899288
   156   1      12.274009377874689      23.450534841736811      5.6607119982770389
   157   1      4.1315613315206052      18.746201639892575      3.9175931615740747
   158   1      5.5105456485656887      17.535699360512979      5.6607112789051204
   159   1      3.0257800861556285      17.454667777098337      5.6607113292510931
   160   1      6.6057404694290822      18.844904528268046      3.9175930801445995
   161   1      6.3197272398796311      21.401551161067658      3.9175933880030436
   162   1      7.6880994600024657      20.196819068353847      5.6607115974557738
   163   1      5.2288557242345979      20.061410049420175      5.6607116351015483
   164   1      8.7635888954720969       21.60277356349539      3.9175933725455829
   165   1      8.4853239714185484      24.186094655018678      3.9175936511741098
   166   1      9.8390001012388648      23.055416307160357      5.6607119270258375
   167   1      7.4044309334984737      22.775556483060484      5.6607119063128852
   168   1      10.919362650691099      24.520960597770141      3.9175936853275899
   169   1      21.561306449814875      17.831460793366631      3.9175929966563596
   170   1       1.632141801514337      18.505961812364575      3.9175932091981616
   171   1      1.3722834842343161      20.953666846243237      3.9175934314952796
   172   1       2.744175381572064      19.896308928414584      5.6607116792013521
   173   1     0.27971799857245488       19.39871056917778       5.660711595962451
   174   1      3.8509769125117272      21.240676172824266      3.9175934405502932
   175   1      3.5768494187917534      23.747221741627413       3.917593681948587
   176   1      4.9484106622163191      22.588498809282328      5.6607119337627827
   177   1      2.4764234462032766      22.371318257198226      5.6607119464941258
   178   1      6.0394490363037656      23.952753658222036      3.9175936605536648
   179   1        4.67186580907706      25.118664771612799      5.6607121664993656
   180   1      16.673397052838915      17.535699412339682       3.917592879374455
   181   1      19.138408769630274      17.599326496254065      3.9175929008025978
   182   1      18.850950841469931       20.19681910207575      3.9175932331527692
   183   1      20.210023696547594      18.989794257693319      5.6607114761827111
   184   1      17.768591836735375      18.844904546508388      5.6607114698978842
   185   1      21.276923663170173      20.465838626266134      3.9175933064046573
   186   1      21.001851473632467      23.055416337956757      3.9175935822623527
   187   1    0.021866065749558294      21.969631169015173      5.6607118838253401
   188   1      19.926440263129695      21.602773589990136      5.6607117912885112
   189   1      1.1111580208504814      23.450534814197766      3.9175936603477304
   190   1      2.2081267030626508      24.871635523888244      5.6607121755291727
   191   1      22.082214022275455      24.520960621173288      5.6607121198529553
   192   1      14.188631515049426      17.454667641994661      3.9175929039724866
   193   1      15.294412764404804      18.746201663206591      5.6607115167365878
   194   1      16.391707116505362      20.061410057150624      3.9175932337600017
   195   1      16.111262030596034      22.588498836871139      3.9175935148190897
   196   1      17.482578632470624       21.40155118501346      5.6607117782654628
   197   1      15.013828270039589      21.240676184586363      5.6607117939009086
   198   1      18.567282316846786      22.775556499185427       3.917593519056759
   199   1      19.648175356846426      24.186094675904741      5.6607120610634132
   200   1      17.202300405339329      23.952753678940496      5.6607120260294836
   201   1       14.73970079722695      23.747221746740877       5.660712028493105
   202   1       15.83471718447848       25.11866478539406      3.9175937430984091
   203   1      21.912633191652471       14.99999996686833       3.917592541287374
   204   1      20.493386121407685      16.321829443520954      5.6607111194883331
   205   1      21.276922828356309      9.5341613422737339      3.9175916784543805
   206   1      21.561306011126963      12.168539168976338      3.9175920846982608
   207   1       19.13840839032445      12.400673432344831       3.917592118192152
   208   1      20.493385935540161      13.678170470788615      5.6607107038273083
   209   1      20.210023070279572      11.010205705621416      5.6607103025331744
   210   1      19.328558671913193      14.999999982211733      3.9175925216606671
   211   1      16.826464983287224      14.999999936619361      3.9175924876209236
   212   1      18.023508390526214      16.279821123201913      5.6607111192300703
   213   1      18.023508142727426      13.720178830999657      5.6607107061179383
   214   1      15.552807142600454      16.252012503992518      5.6607111558819119
   215   1      21.001850155466713      6.9445836936697845      3.9175912922399267
   216   1      18.567281060250153      7.2244434742713963       3.917591330416696
   217   1      19.926439247587016      8.3972263880742162      5.6607099057622978
   218   1      19.648173815076944      5.8139053404250092      5.6607095200629152
   219   1      18.850950043108728      9.8031808844228863      3.9175917233614825
   220   1      16.391706390720209      9.9385898509871708      3.9175916824228341
   221   1      17.768591326861827      11.155095384970309      5.6607103116910693
   222   1      17.482577605438291      8.5984488052686174      5.6607099174475426
   223   1      16.673396652170059      12.464300618719193      3.9175920662851684
   224   1      14.188631138493417      12.545331932302162      3.9175919538155703
   225   1      15.552807103274246      13.747987398039299      5.6607107150376974
   226   1      15.294412120456235      11.253798365481913      5.6607102695851612
   227   1      14.341791717031624       15.00000020744028      3.9175924133489652
   228   1      11.687351916729046      16.762214248625924      3.9175927949435652
   229   1      13.098064990923209      16.154162040375581      5.6607112904142429
   230   1      13.098064569485276      13.845837883026064      5.6607106431694199
   231   1      15.834715498511015      4.8813352146059685      3.9175909486730518
   232   1      17.202298941164671      6.0472463016317874      5.6607095291854028
   233   1      16.111260808816674      7.4115011872957837       3.917591311245622
   234   1      13.639273676933332      7.6286816869859422        3.91759129987192
   235   1      15.013827378815744      8.7593237521327012      5.6607098798417788
   236   1      14.739699345864398       6.252778281915738      5.6607095223208939
   237   1      13.907026052536086      10.103691205664177      3.9175916225109946
   238   1         11.442568776221      10.601289405454509      3.9175917346119005
   239   1      12.794992720492164      11.494038187532652      5.6607102296675276
   240   1      12.535133945945443      9.0463331948414236      5.6607098920523855
   241   1       11.68735173676758      13.237785657096879      3.9175920751077102
   242   1      9.3305345333698373      13.678170480587056      3.9175922900547508
   243   1      10.749781807610477      14.999999968821044       5.660710887755914
   244   1      10.398454624751727      12.168539191651945      5.6607104496381986
   245   1       9.330534763006467      16.321829443998865      3.9175926957895451
   246   1      6.8606569623032687      16.279821109899956      3.9175927177672096
   247   1      8.1657072697978048      14.999999963037936       5.660710886149924
   248   1      13.370976439134367      5.1283645385084355      3.9175909608230444
   249   1      10.919361075891395      5.4790394325628995      3.9175910205425568
   250   1      12.274008050047453      6.5494652170887946      5.6607095472386417
   251   1      11.184716359553601      8.0303688702184957      3.9175913831747025
   252   1      8.7635878667218368      8.3972264130847805       3.917591490188276
   253   1      10.114071479910498      9.5341613868502009      5.6607100376399453
   254   1      9.8389987887415451      6.9445837111514379      5.6607096481006467
   255   1      9.0471717160843159      11.010205726742242      3.9175918910050447
   256   1      6.6057399203284177      11.155095388308212      3.9175919174423095
   257   1      7.9755569951346388      12.400673449813155      5.6607104947897655
   258   1       7.688098663292406      9.8031808910781706      5.6607100940249033
   259   1      6.8606567578536097      13.720178828263442      3.9175923122971925
   260   1      4.3899556296719533      13.747987390655709      3.9175923415405407
   261   1       5.663613568713477       14.99999993933352      5.6607108726844917
   262   1      5.5105452574376343       12.46430057907412      5.6607104600967668
   263   1      4.3899558118329631      16.252012497224541      3.9175927883716324
   264   1      1.9352134965781373      16.154162132593257       3.917592954624654
   265   1      3.1789403135122569       14.99999999236843      5.6607108172228253
   266   1       8.485322453961496      5.8139053782562371      3.9175910982890829
   267   1      6.0394475678095514      6.0472463369493141      3.9175911246637809
   268   1      7.4044296977896451      7.2244435001302065      5.6607096995414041
   269   1      6.3197262425966629       8.598448823164091      3.9175915133347754
   270   1       3.850975991367279      8.7593237439162692      3.9175915016643481
   271   1       5.228855010735197      9.9385898652243441      5.6607100656498233
   272   1      4.9484094294638776      7.4115011944443268      5.6607097010647278
   273   1      4.1315607693452314      11.253798346707981      3.9175918928137445
   274   1      1.6321412616958137      11.494037988076769      3.9175918653883706
   275   1       3.025779787630992      12.545332043284333      5.6607103586616425
   276   1      2.7441746332959753       10.10369112124269      5.6607100268469175
   277   1      1.9352132621258435      13.845837963576798      3.9175922850444564
   278   1     0.52450057926477422      16.762214264505133      5.6607112283243302
   279   1      0.5245002855137918      13.237785595165661      5.6607104817526093
   280   1      4.6718641279663666      4.8813352395471838      5.6607093259318333
   281   1      3.5768479676775753      6.2527782964042729      3.9175911348354893
   282   1      1.1111566395864585      6.5494651638549897      3.9175911855892602
   283   1       2.476422302000465      7.6286816824248262      5.6607097069395893
   284   1      2.2081250416682532      5.1283645316171373      5.6607093582886217
   285   1      1.3722825859290404      9.0463332629493038      3.9175915224813567
   286   1     0.27971744196035697      10.601289388415836      5.6607101466313781
   287   1     0.02186493955816645      8.0303688213909652      5.6607098010275134
   288   1      22.082212450175827      5.4790394085694913      5.6607094393236181
