(written by ASE)

180 atoms
1 atom types

0.0      14.378264682075612  xlo xhi
0.0                      30  ylo yhi
0.0      6.9724735581572146  zlo zhi

Atoms # atomic

     1   1      6.1041872717755297      18.238125154717579 -1.0279655303756177e-06
     2   1      5.7317132880436459      16.542329598761654      1.7431172801233348
     3   1      6.9839790206662871      21.699087424633944 -9.6103757664587843e-07
     4   1      6.5606109232748206       19.94653351873734      1.7431174086864791
     5   1      3.9215933414487734      16.878645555074939 -1.0462160398891846e-06
     6   1      2.7554089434182321      19.086279015790439 -9.7103311817024787e-07
     7   1      4.4151330901265347      18.652722400323682      1.7431173948954628
     8   1      2.3562708447672898      17.233136365829893      1.7431173733754939
     9   1      4.8588727352460186      20.410551358888796  -9.640087394705133e-07
    10   1      3.5928025384199849      22.593777399523162 -9.6824099960327261e-07
    11   1      5.2908787178152554      22.148531493495284      1.7431174219821488
    12   1      3.1682277245572816      20.845089657893368      1.7431174296042251
    13   1      5.7127534501146506       23.89836986390938 -9.8583122384786433e-07
    14   1      4.0192180613593145      24.340808806264988      1.7431173864632004
    15   1      12.920845542523894      16.542329331788693 -1.1102771132951087e-06
    16   1     0.69920505793112275      17.771515804389793 -1.0085519018750522e-06
    17   1      13.749743210599917      19.946533518296178 -9.7394782592038373e-07
    18   1      1.0728042307202059      19.494915698295955      1.7431174160212397
    19   1      13.293319614730322      18.238125266926346       1.743117362103741
    20   1      1.4799452103097694       21.26689976763285  -9.587255142621201e-07
    21   1     0.21344657807781883      23.460886314245471 -9.8455066644482427e-07
    22   1      1.9011076054946028      23.028312541788409      1.7431174101092732
    23   1      14.173111337265604      21.699087474369207      1.7431174251925312
    24   1      2.3257260007184062      24.781588300092579 -1.0175539429297334e-06
    25   1      9.5454029612552187      17.233136293258951 -1.0359807683759958e-06
    26   1      11.110726025326731      16.878645218977738      1.7431173256735832
    27   1      11.604265454723276      18.652722538421159  -1.000146245338811e-06
    28   1      10.357360052733245      20.845089675114053 -9.5638056081005134e-07
    29   1      12.048005045110454      20.410551374520082      1.7431174239130804
    30   1        9.94454125953866      19.086279166836306      1.7431174063181309
    31   1      12.480011023048482      22.148531598387081 -9.6194125639154161e-07
    32   1      11.208350346141822      24.340808912162515  -9.882566419098636e-07
    33   1      12.901885747282714      23.898369918233129      1.7431173998801546
    34   1       10.78193484828963      22.593777514112389      1.7431174265538414
    35   1      7.8883373920063233      17.771515693501186      1.7431173645511524
    36   1      8.2619366437060027       19.49491570224464 -9.8112258866309085e-07
    37   1      8.6690775798049931      21.266899751555826       1.743117430248277
    38   1      9.0902399315518156      23.028312623600499 -9.6574428031760287e-07
    39   1      9.5148582975977618      24.781588411018788      1.7431173918000602
    40   1      7.4025789342432127       23.46088633246984      1.7431174131853677
    41   1     0.27360888321706656      16.167626750400416      1.7431173521812473
    42   1       7.462741352038182       16.16762690800752 -1.0504049937720152e-06
    43   1      13.749744613835652      10.053466540768255 -1.3322959477021714e-06
    44   1      12.920846402936533      13.457670776906326 -1.2621745644477658e-06
    45   1      13.293320656850849      11.761874998314795      1.7431170763716939
    46   1      12.544074330357565      15.000000446295076       1.743117198792159
    47   1      11.208352684724815       5.659191124839893 -1.2391620950988953e-06
    48   1      12.901888006472596      6.1016300930519378      1.7431171357082895
    49   1      12.480012919496783       7.851468465205798 -1.3068815980029927e-06
    50   1      10.357361667448677       9.154910324817223   -1.32388879011449e-06
    51   1      12.048006570818343      9.5894486773765379      1.7431170635448234
    52   1      10.781936823573488      7.4062225416949872      1.7431170952515547
    53   1      11.604266566673719      11.347277677012357   -1.32327708545655e-06
    54   1      9.5454038874544302      12.766863612499066 -1.3221373651256962e-06
    55   1      11.110726429909866      13.121354453176366      1.7431170901320086
    56   1      9.9445424471816253      10.913720928050992      1.7431170545385497
    57   1      10.781565747037384       15.00000003722559 -1.1982174375245856e-06
    58   1      8.9934387435404286      15.000000513407144      1.7431171807000534
    59   1      9.5148606998199909      5.2184115889812119      1.7431171755923018
    60   1      9.0902419536350312      6.9716873830914921 -1.2839800630719827e-06
    61   1      6.9839807632527267       8.300912544188364 -1.3269733752891818e-06
    62   1      8.6690792242402885      8.7331001886803676      1.7431170631457706
    63   1      7.4025810320432699      6.5391136258594003      1.7431171159791155
    64   1      8.2619378889653543      10.505084341491056 -1.3440895220496705e-06
    65   1      6.1041884064637113      11.761874900954297 -1.3315172931722389e-06
    66   1      7.8883383922516686      12.228484389463006      1.7431170438227335
    67   1      6.5606123205464657      10.053466598654211      1.7431170408642354
    68   1      7.4627418890098465      13.832373599417707  -1.346114582945029e-06
    69   1      5.3549419475400288      14.999999488827626 -1.1936498178600502e-06
    70   1      5.7317139784608688       13.45767106627423      1.7431171173891131
    71   1      5.7127556565662108      6.1016300757172814 -1.2571139417605175e-06
    72   1      3.5928045127312118      7.4062225637006804 -1.3136214089818282e-06
    73   1      5.2908805696728605      7.8514684833964736      1.7431170630254851
    74   1      4.0192203880763522      5.6591911252897376      1.7431171565220671
    75   1      4.8588742347719354      9.5894487685490901 -1.3540532322626214e-06
    76   1      2.7554100372284069      10.913720793582144 -1.3604232576138936e-06
    77   1      4.4151343080786551      11.347277554512118      1.7431170364560913
    78   1      3.1682292988305205      9.1549104201552893      1.7431170368175664
    79   1      3.9215944401751446       13.12135473693769 -1.3143789707944348e-06
    80   1      1.8043063802658863      15.000000223624795 -1.1860304349552855e-06
    81   1      3.5924333624256728      14.999999909527844      1.7431172014848815
    82   1      2.3562713121026162      12.766863598703338      1.7431170523338981
    83   1      2.3257284124920821      5.2184116269693419 -1.2099189695092033e-06
    84   1     0.21344875073209171      6.5391136430889958 -1.2746783419523716e-06
    85   1      1.9011096830417253      6.9716874016479551      1.7431170947683974
    86   1      1.4799468830973048      8.7331002542733245 -1.3416931745737895e-06
    87   1      1.0728055100095057      10.505084321881611      1.7431170359762032
    88   1        14.1731131143972      8.3009125487809428      1.7431170664041655
    89   1     0.69920596283650027       12.22848445193992 -1.3392284933117129e-06
    90   1     0.27360971342293883      13.832373408157849      1.7431170630457338
    91   1      6.1041872717755297      18.238125154717579       3.486235751113075
    92   1      5.7317132880436459      16.542329598761654      5.2293540592019419
    93   1      6.9839790206662871      21.699087424633944      3.4862358180410293
    94   1      6.5606109232748206       19.94653351873734      5.2293541877650851
    95   1      3.9215933414487734      16.878645555074939      3.4862357328625659
    96   1      2.7554089434182321      19.086279015790439       3.486235808045488
    97   1      4.4151330901265347      18.652722400323682      5.2293541739740688
    98   1      2.3562708447672898      17.233136365829893      5.2293541524540998
    99   1      4.8588727352460186      20.410551358888796       3.486235815069866
   100   1      3.5928025384199849      22.593777399523162      3.4862358108376061
   101   1      5.2908787178152554      22.148531493495284      5.2293542010607545
   102   1      3.1682277245572816      20.845089657893368      5.2293542086828309
   103   1      5.7127534501146506       23.89836986390938      3.4862357932473822
   104   1      4.0192180613593145      24.340808806264988      5.2293541655418059
   105   1      12.920845542523894      16.542329331788693       3.486235668801493
   106   1     0.69920505793112275      17.771515804389793      3.4862357705267035
   107   1      13.749743210599917      19.946533518296178      3.4862358051307796
   108   1      1.0728042307202059      19.494915698295955      5.2293541950998472
   109   1      13.293319614730322      18.238125266926346      5.2293541411823483
   110   1      1.4799452103097694       21.26689976763285      3.4862358203530923
   111   1     0.21344657807781883      23.460886314245471      3.4862357945279396
   112   1      1.9011076054946028      23.028312541788409      5.2293541891878776
   113   1      14.173111337265604      21.699087474369207      5.2293542042711367
   114   1      2.3257260007184062      24.781588300092579      3.4862357615246631
   115   1      9.5454029612552187      17.233136293258951      3.4862357430978368
   116   1      11.110726025326731      16.878645218977738       5.229354104752189
   117   1      11.604265454723276      18.652722538421159       3.486235778932361
   118   1      10.357360052733245      20.845089675114053       3.486235822698045
   119   1      12.048005045110454      20.410551374520082      5.2293542029916873
   120   1        9.94454125953866      19.086279166836306       5.229354185396736
   121   1      12.480011023048482      22.148531598387081      3.4862358171373495
   122   1      11.208350346141822      24.340808912162515      3.4862357908219641
   123   1      12.901885747282714      23.898369918233129      5.2293541789587614
   124   1       10.78193484828963      22.593777514112389      5.2293542056324478
   125   1      7.8883373920063233      17.771515693501186      5.2293541436297586
   126   1      8.2619366437060027       19.49491570224464      3.4862357979560166
   127   1      8.6690775798049931      21.266899751555826      5.2293542093268828
   128   1      9.0902399315518156      23.028312623600499      3.4862358133343254
   129   1      9.5148582975977618      24.781588411018788      5.2293541708786648
   130   1      7.4025789342432127       23.46088633246984      5.2293541922639726
   131   1     0.27360888321706656      16.167626750400416      5.2293541312598526
   132   1       7.462741352038182       16.16762690800752      3.4862357286736119
   133   1      13.749744613835652      10.053466540768255      3.4862354467826582
   134   1      12.920846402936533      13.457670776906326       3.486235516904042
   135   1      13.293320656850849      11.761874998314795      5.2293538554502987
   136   1      12.544074330357565      15.000000446295076      5.2293539778707654
   137   1      11.208352684724815       5.659191124839893      3.4862355399165104
   138   1      12.901888006472596      6.1016300930519378      5.2293539147868966
   139   1      12.480012919496783       7.851468465205798      3.4862354721970075
   140   1      10.357361667448677       9.154910324817223      3.4862354551898154
   141   1      12.048006570818343      9.5894486773765379      5.2293538426234303
   142   1      10.781936823573488      7.4062225416949872      5.2293538743301609
   143   1      11.604266566673719      11.347277677012357      3.4862354558015203
   144   1      9.5454038874544302      12.766863612499066      3.4862354569412406
   145   1      11.110726429909866      13.121354453176366      5.2293538692106143
   146   1      9.9445424471816253      10.913720928050992      5.2293538336171554
   147   1      10.781565747037384       15.00000003722559      3.4862355808611687
   148   1      8.9934387435404286      15.000000513407144      5.2293539597786598
   149   1      9.5148606998199909      5.2184115889812119      5.2293539546709074
   150   1      9.0902419536350312      6.9716873830914921      3.4862354950985428
   151   1      6.9839807632527267       8.300912544188364      3.4862354521052303
   152   1      8.6690792242402885      8.7331001886803676       5.229353842224377
   153   1      7.4025810320432699      6.5391136258594003      5.2293538950577201
   154   1      8.2619378889653543      10.505084341491056      3.4862354349890836
   155   1      6.1041884064637113      11.761874900954297      3.4862354475613135
   156   1      7.8883383922516686      12.228484389463006      5.2293538229013397
   157   1      6.5606123205464657      10.053466598654211      5.2293538199428413
   158   1      7.4627418890098465      13.832373599417707      3.4862354329640231
   159   1      5.3549419475400288      14.999999488827626      3.4862355854287888
   160   1      5.7317139784608688       13.45767106627423      5.2293538964677184
   161   1      5.7127556565662108      6.1016300757172814      3.4862355219646641
   162   1      3.5928045127312118      7.4062225637006804       3.486235465457197
   163   1      5.2908805696728605      7.8514684833964736      5.2293538421040902
   164   1      4.0192203880763522      5.6591911252897376      5.2293539356006731
   165   1      4.8588742347719354      9.5894487685490901      3.4862354250253738
   166   1      2.7554100372284069      10.913720793582144      3.4862354186553484
   167   1      4.4151343080786551      11.347277554512118      5.2293538155346972
   168   1      3.1682292988305205      9.1549104201552893      5.2293538158961725
   169   1      3.9215944401751446       13.12135473693769      3.4862354646996359
   170   1      1.8043063802658863      15.000000223624795      3.4862355930481712
   171   1      3.5924333624256728      14.999999909527844      5.2293539805634879
   172   1      2.3562713121026162      12.766863598703338      5.2293538314125048
   173   1      2.3257284124920821      5.2184116269693419      3.4862355691596365
   174   1     0.21344875073209171      6.5391136430889958       3.486235504400264
   175   1      1.9011096830417253      6.9716874016479551      5.2293538738470042
   176   1      1.4799468830973048      8.7331002542733245      3.4862354373854321
   177   1      1.0728055100095057      10.505084321881611        5.22935381505481
   178   1        14.1731131143972      8.3009125487809428      5.2293538454827724
   179   1     0.69920596283650027       12.22848445193992      3.4862354398501125
   180   1     0.27360971342293883      13.832373408157849      5.2293538421243397
