(written by ASE)

240 atoms
1 atom types

0.0      18.770529098654873  xlo xhi
0.0                      30  ylo yhi
0.0      6.9724735581572146  zlo zhi

Atoms # atomic

     1   1      6.0739160799761462      17.155052784575844      1.3073387951235986
     2   1      5.2639948813147504      14.999999999998295      3.0504571846628505
     3   1      6.7876418081554197      18.693451444785666      3.0504571846628998
     4   1      1.6685113478927118      15.000000000000057      1.3073387951235498
     5   1      3.8806814454303424      16.166492900014248      1.3073387951235989
     6   1      2.8375819822626722      18.370516406902283      1.3073387951235973
     7   1      4.4890941332423147      17.729018340128135      3.0504571846629069
     8   1      2.2330904425192353      16.587581016610301      3.0504571846628865
     9   1      5.1137181869469606        19.4120024388844      1.3073387951235904
    10   1      4.1552262636140167      21.723415645057116      1.3073387951235687
    11   1      5.7901442510957413      21.031039536020756      3.0504571846628785
    12   1      3.4982326121992147      20.047036849538415      3.0504571846628861
    13   1      6.4434887548754478      22.680828191882199       1.307338795123546
    14   1      5.4674536931841953      25.039364354289091      1.3073387951234947
    15   1      4.8162091692466555      23.376190958522358      3.0504571846628386
    16   1       17.17079485742083       16.31247001926863      1.3073387951235638
    17   1      18.726109494041776      15.000000000000512      3.0504571846628536
    18   1      16.297694464934381      15.000000000000455      3.0504571846628452
    19   1     0.61849642180607833      17.211287598428811      1.3073387951235866
    20   1      18.434632403112658      19.616601211526586      1.3073387951235804
    21   1      1.2548866366431759      18.957922183475091      3.0504571846628945
    22   1      17.806918342791928      17.898591742262965      3.0504571846628825
    23   1      1.8906808841806515      20.693162576679669      1.3073387951235689
    24   1     0.92676746605739524      23.034263108977683        1.30733879512353
    25   1      2.5388642142515319      22.382275881182721      3.0504571846628559
    26   1     0.29018680886114373      21.329240825222513      3.0504571846628625
    27   1      3.1909437684561528      24.056590151340231      1.3073387951235245
    28   1      1.5728404115598091      24.721026512727661       3.050457184662815
    29   1      14.649259430642591      15.000000000000227      1.3073387951235418
    30   1      13.874358682569676      17.729018340128533      1.3073387951235744
    31   1       15.45918062930345      17.155052784576839      3.0504571846628763
    32   1      13.265945994758072      16.166492900015442      3.0504571846628714
    33   1      16.172906357482777       18.69345144478612      1.3073387951235687
    34   1      15.175408800423012      21.031039536021012      1.3073387951235442
    35   1      16.814187452599224      20.311409060127403      3.0504571846628625
    36   1       14.49898273627457      19.412002438884684      3.0504571846628625
    37   1       17.45003457243385      21.992703045187369      1.3073387951235425
    38   1      16.472968702269611      24.357562774134834      1.3073387951235023
    39   1      18.087257007664096      23.688155706275211       3.050457184662819
    40   1      15.828753304202841      22.680828191882483      3.0504571846628252
    41   1      9.3408449447140764       14.99999999999838      1.3073387951235516
    42   1      11.053775897220303      15.000000000000171      3.0504571846628439
    43   1      11.618354991846138       16.58758101661067      1.3073387951235658
    44   1      10.640151185970122      18.957922183475091      1.3073387951235649
    45   1      12.222846531589864      18.370516406902823      3.0504571846628674
    46   1      10.003760971133211      17.211287598428413      3.0504571846628776
    47   1      12.883497161526135      20.047036849538387      1.3073387951235536
    48   1      11.924128763578706      22.382275881182551      1.3073387951235178
    49   1      13.540490812941146      21.723415645057514      3.0504571846628266
    50   1      11.275945433507948       20.69316257667964      3.0504571846628465
    51   1      14.201473718573856      23.376190958522272      1.3073387951235003
    52   1      14.852718242511799       25.03936435428912      3.0504571846627888
    53   1      12.576208317783532       24.05659015133989      3.0504571846627901
    54   1      6.9124299156062552      14.999999999999261        1.30733879512355
    55   1      7.7855303080934855      16.312470019267835      3.0504571846628759
    56   1      8.4216537934642428      17.898591742262226      1.3073387951235742
    57   1       7.428922903271765      20.311409060126977      1.3073387951235784
    58   1      9.0493678537851512      19.616601211526302       3.050457184662863
    59   1      9.6754513581882797      21.329240825221888      1.3073387951235453
    60   1      8.7019924583366137      23.688155706274813      1.3073387951235107
    61   1      10.312032015384791      23.034263108977569      3.0504571846628146
    62   1      8.0647700231064832      21.992703045186829      3.0504571846628474
    63   1      10.958104960887114      24.721026512727377      1.3073387951234756
    64   1      7.0877041529419778      24.357562774134379      3.0504571846628115
    65   1      17.806918342790826      12.101408257737233      3.0504571846627702
    66   1      18.434632403111451      10.383398788473528       1.307338795123405
    67   1      17.170794857420493      13.687529980731654      1.3073387951235118
    68   1      18.087257007663148      6.3118442937245334      3.0504571846626214
    69   1      15.828753304202369       7.319171808116721      3.0504571846626587
    70   1      17.450034572432912      8.0072969548125172      1.3073387951233559
    71   1      16.472968702268446      5.6424372258654358      1.3073387951233171
    72   1      16.814187452598595      9.6885909398729666      3.0504571846627009
    73   1      14.498982736273849      10.587997561115571      3.0504571846627337
    74   1      16.172906357482141      11.306548555214761      1.3073387951234423
    75   1      15.175408800422263      8.9689604639793004      1.3073387951233955
    76   1      15.459180629302882      12.844947215424469      3.0504571846627617
    77   1      13.265945994757125      13.833507099984928      3.0504571846628021
    78   1      13.874358682569396      12.270981659872035      1.3073387951234696
    79   1      14.852718242510949      4.9606356457108518      3.0504571846626298
    80   1      12.576208317783271      5.9434098486600107      3.0504571846626587
    81   1        14.2014737185733      6.6238090414781823      1.3073387951233513
    82   1       13.54049081294046      8.2765843549423437      3.0504571846626938
    83   1      11.275945433507534      9.3068374233201894      3.0504571846627093
    84   1      12.883497161525753      9.9529631504620397      1.3073387951234174
    85   1       11.92412876357842      7.6177241188180744      1.3073387951233717
    86   1      12.222846531589486      11.629483593097717      3.0504571846627586
    87   1       10.00376097113266      12.788712401571388      3.0504571846627817
    88   1      11.618354991845887      13.412418983389699      1.3073387951235018
    89   1      10.640151185969948      11.042077816525222      1.3073387951234456
    90   1      10.958104960886313      5.2789734872727365      1.3073387951233497
    91   1       10.31203201538391      6.9657368910227149      3.0504571846626645
    92   1      8.0647700231058117      8.0072969548136541      3.0504571846626694
    93   1      9.6754513581879795      8.6707591747779702      1.3073387951233921
    94   1      8.7019924583356261      6.3118442937254429      1.3073387951233493
    95   1      9.0493678537847053      10.383398788474153      3.0504571846627315
    96   1      6.7876418081546213       11.30654855521351      3.0504571846627253
    97   1      8.4216537934634204       12.10140825773729      1.3073387951234663
    98   1      7.4289229032710828      9.6885909398727392       1.307338795123399
    99   1      7.7855303080925342      13.687529980730716       3.050457184662819
   100   1      6.0739160799747749      12.844947215423701      1.3073387951234396
   101   1        7.08770415294115      5.6424372258661322       3.050457184662632
   102   1      4.8162091692455054      6.6238090414778981      3.0504571846626178
   103   1       6.443488754874636      7.3191718081178578      1.3073387951233395
   104   1      5.4674536931835496      4.9606356457109939      1.3073387951233182
   105   1      5.7901442510944507      8.9689604639797551      3.0504571846626649
   106   1      3.4982326121977612      9.9529631504610165      3.0504571846626818
   107   1      5.1137181869457224      10.587997561115372      1.3073387951233955
   108   1      4.1552262636125858      8.2765843549423153      1.3073387951233375
   109   1      4.4890941332409113      12.270981659870898      3.0504571846627431
   110   1      2.2330904425179772      13.412418983388847      3.0504571846627941
   111   1      3.8806814454293805      13.833507099984161      1.3073387951234694
   112   1      2.8375819822616641      11.629483593097092      1.3073387951234221
   113   1      1.5728404115590242      5.2789734872719691      3.0504571846626014
   114   1      3.1909437684554058      5.9434098486593285      1.3073387951233089
   115   1      2.5388642142504705      7.6177241188170512      3.0504571846626329
   116   1     0.29018680886039055      8.6707591747770039      3.0504571846626574
   117   1      1.8906808841792873      9.3068374233197915      1.3073387951233637
   118   1     0.92676746605645188      6.9657368910218906      1.3073387951233171
   119   1      1.2548866366418234      11.042077816524369      3.0504571846627098
   120   1     0.61849642180472408      12.788712401570962      1.3073387951234541
   121   1      6.0739160799761462      17.155052784575844      4.7935755742022046
   122   1      5.2639948813147504      14.999999999998295      6.5366939637414569
   123   1      6.7876418081554197      18.693451444785666      6.5366939637415067
   124   1      1.6685113478927118      15.000000000000057      4.7935755742021566
   125   1      3.8806814454303424      16.166492900014248      4.7935755742022046
   126   1      2.8375819822626722      18.370516406902283      4.7935755742022028
   127   1      4.4890941332423147      17.729018340128135      6.5366939637415138
   128   1      2.2330904425192353      16.587581016610301      6.5366939637414934
   129   1      5.1137181869469606        19.4120024388844      4.7935755742021966
   130   1      4.1552262636140167      21.723415645057116      4.7935755742021744
   131   1      5.7901442510957413      21.031039536020756      6.5366939637414854
   132   1      3.4982326121992147      20.047036849538415      6.5366939637414907
   133   1      6.4434887548754478      22.680828191882199      4.7935755742021522
   134   1      5.4674536931841953      25.039364354289091      4.7935755742021016
   135   1      4.8162091692466555      23.376190958522358      6.5366939637414454
   136   1       17.17079485742083       16.31247001926863      4.7935755742021691
   137   1      18.726109494041776      15.000000000000512      6.5366939637414587
   138   1      16.297694464934381      15.000000000000455      6.5366939637414507
   139   1     0.61849642180607833      17.211287598428811      4.7935755742021922
   140   1      18.434632403112658      19.616601211526586      4.7935755742021859
   141   1      1.2548866366431759      18.957922183475091      6.5366939637414996
   142   1      17.806918342791928      17.898591742262965      6.5366939637414871
   143   1      1.8906808841806515      20.693162576679669      4.7935755742021753
   144   1     0.92676746605739524      23.034263108977683      4.7935755742021353
   145   1      2.5388642142515319      22.382275881182721      6.5366939637414632
   146   1     0.29018680886114373      21.329240825222513      6.5366939637414694
   147   1      3.1909437684561528      24.056590151340231        4.79357557420213
   148   1      1.5728404115598091      24.721026512727661      6.5366939637414223
   149   1      14.649259430642591      15.000000000000227      4.7935755742021486
   150   1      13.874358682569676      17.729018340128533      4.7935755742021806
   151   1       15.45918062930345      17.155052784576839      6.5366939637414827
   152   1      13.265945994758072      16.166492900015442      6.5366939637414783
   153   1      16.172906357482777       18.69345144478612      4.7935755742021744
   154   1      15.175408800423012      21.031039536021012      4.7935755742021504
   155   1      16.814187452599224      20.311409060127403      6.5366939637414703
   156   1       14.49898273627457      19.412002438884684      6.5366939637414694
   157   1       17.45003457243385      21.992703045187369      4.7935755742021486
   158   1      16.472968702269611      24.357562774134834      4.7935755742021096
   159   1      18.087257007664096      23.688155706275211      6.5366939637414259
   160   1      15.828753304202841      22.680828191882483      6.5366939637414312
   161   1      9.3408449447140764       14.99999999999838      4.7935755742021584
   162   1      11.053775897220303      15.000000000000171      6.5366939637414498
   163   1      11.618354991846138       16.58758101661067      4.7935755742021717
   164   1      10.640151185970122      18.957922183475091        4.79357557420217
   165   1      12.222846531589864      18.370516406902823      6.5366939637414738
   166   1      10.003760971133211      17.211287598428413      6.5366939637414827
   167   1      12.883497161526135      20.047036849538387      4.7935755742021602
   168   1      11.924128763578706      22.382275881182551      4.7935755742021238
   169   1      13.540490812941146      21.723415645057514      6.5366939637414321
   170   1      11.275945433507948       20.69316257667964      6.5366939637414534
   171   1      14.201473718573856      23.376190958522272       4.793575574202106
   172   1      14.852718242511799       25.03936435428912      6.5366939637413948
   173   1      12.576208317783532       24.05659015133989      6.5366939637413966
   174   1      6.9124299156062552      14.999999999999261      4.7935755742021566
   175   1      7.7855303080934855      16.312470019267835      6.5366939637414818
   176   1      8.4216537934642428      17.898591742262226      4.7935755742021806
   177   1       7.428922903271765      20.311409060126977      4.7935755742021842
   178   1      9.0493678537851512      19.616601211526302      6.5366939637414703
   179   1      9.6754513581882797      21.329240825221888      4.7935755742021522
   180   1      8.7019924583366137      23.688155706274813      4.7935755742021176
   181   1      10.312032015384791      23.034263108977569      6.5366939637414223
   182   1      8.0647700231064832      21.992703045186829      6.5366939637414543
   183   1      10.958104960887114      24.721026512727377      4.7935755742020802
   184   1      7.0877041529419778      24.357562774134379      6.5366939637414179
   185   1      17.806918342790826      12.101408257737233      6.5366939637413752
   186   1      18.434632403111451      10.383398788473528       4.793575574202011
   187   1      17.170794857420493      13.687529980731654      4.7935755742021176
   188   1      18.087257007663148      6.3118442937245334      6.5366939637412287
   189   1      15.828753304202369       7.319171808116721      6.5366939637412651
   190   1      17.450034572432912      8.0072969548125172      4.7935755742019612
   191   1      16.472968702268446      5.6424372258654358       4.793575574201923
   192   1      16.814187452598595      9.6885909398729666      6.5366939637413068
   193   1      14.498982736273849      10.587997561115571      6.5366939637413415
   194   1      16.172906357482141      11.306548555214761      4.7935755742020483
   195   1      15.175408800422263      8.9689604639793004      4.7935755742020003
   196   1      15.459180629302882      12.844947215424469      6.5366939637413681
   197   1      13.265945994757125      13.833507099984928      6.5366939637414072
   198   1      13.874358682569396      12.270981659872035      4.7935755742020758
   199   1      14.852718242510949      4.9606356457108518      6.5366939637412367
   200   1      12.576208317783271      5.9434098486600107      6.5366939637412651
   201   1        14.2014737185733      6.6238090414781823      4.7935755742019568
   202   1       13.54049081294046      8.2765843549423437      6.5366939637413006
   203   1      11.275945433507534      9.3068374233201894       6.536693963741314
   204   1      12.883497161525753      9.9529631504620397      4.7935755742020225
   205   1       11.92412876357842      7.6177241188180744      4.7935755742019772
   206   1      12.222846531589486      11.629483593097717      6.5366939637413655
   207   1       10.00376097113266      12.788712401571388      6.5366939637413886
   208   1      11.618354991845887      13.412418983389699      4.7935755742021087
   209   1      10.640151185969948      11.042077816525222      4.7935755742020527
   210   1      10.958104960886313      5.2789734872727365      4.7935755742019559
   211   1       10.31203201538391      6.9657368910227149      6.5366939637412704
   212   1      8.0647700231058117      8.0072969548136541      6.5366939637412758
   213   1      9.6754513581879795      8.6707591747779702      4.7935755742019976
   214   1      8.7019924583356261      6.3118442937254429      4.7935755742019559
   215   1      9.0493678537847053      10.383398788474153       6.536693963741337
   216   1      6.7876418081546213       11.30654855521351      6.5366939637413317
   217   1      8.4216537934634204       12.10140825773729      4.7935755742020723
   218   1      7.4289229032710828      9.6885909398727392      4.7935755742020048
   219   1      7.7855303080925342      13.687529980730716      6.5366939637414259
   220   1      6.0739160799747749      12.844947215423701      4.7935755742020456
   221   1        7.08770415294115      5.6424372258661322      6.5366939637412376
   222   1      4.8162091692455054      6.6238090414778981      6.5366939637412242
   223   1       6.443488754874636      7.3191718081178578      4.7935755742019452
   224   1      5.4674536931835496      4.9606356457109939      4.7935755742019239
   225   1      5.7901442510944507      8.9689604639797551      6.5366939637412704
   226   1      3.4982326121977612      9.9529631504610165      6.5366939637412873
   227   1      5.1137181869457224      10.587997561115372      4.7935755742020003
   228   1      4.1552262636125858      8.2765843549423153      4.7935755742019426
   229   1      4.4890941332409113      12.270981659870898      6.5366939637413504
   230   1      2.2330904425179772      13.412418983388847      6.5366939637413992
   231   1      3.8806814454293805      13.833507099984161      4.7935755742020758
   232   1      2.8375819822616641      11.629483593097092      4.7935755742020287
   233   1      1.5728404115590242      5.2789734872719691      6.5366939637412065
   234   1      3.1909437684554058      5.9434098486593285       4.793575574201915
   235   1      2.5388642142504705      7.6177241188170512      6.5366939637412385
   236   1     0.29018680886039055      8.6707591747770039      6.5366939637412633
   237   1      1.8906808841792873      9.3068374233197915      4.7935755742019692
   238   1     0.92676746605645188      6.9657368910218906       4.793575574201923
   239   1      1.2548866366418234      11.042077816524369       6.536693963741314
   240   1     0.61849642180472408      12.788712401570962      4.7935755742020598
