(written by ASE)

228 atoms
1 atom types

0.0      17.431183895393037  xlo xhi
0.0                      30  ylo yhi
0.0      6.9724735581572146  zlo zhi

Atoms # atomic

     1   1      1.6004974640240013      16.152969136948357      1.7431264382265355
     2   1      0.1704862693209325      13.250546708410084  8.7509542563181691e-06
     3   1      14.084758987642635      15.000000043335305       1.743126829509736
     4   1      15.242079828813365      13.688251875370085  8.5534481297374359e-06
     5   1      12.776097375869938      13.740758200448937  8.5514212034099579e-06
     6   1      16.671899133481979      15.000000028942111      1.7431267815117304
     7   1      16.278813870549488      17.805922232083162       1.743126441956043
     8   1     0.17048484166245606       16.74945383797035  8.2413396029182299e-06
     9   1      15.242078587612893      16.311748381817154  8.2610201906895229e-06
    10   1      1.2304171819364693      18.497375565867088      1.7431262675931936
    11   1     0.89623801630688971      20.942405579539013       1.743126065867896
    12   1      17.281972021143211      19.377278156421937  7.9057483754518508e-06
    13   1      8.8860782852642277      13.250546740822244      1.7431271987206483
    14   1      11.580639827121855      15.000000253296633      1.7431269489092738
    15   1      11.376694335458472       17.46116643467434      1.7431265535905802
    16   1      12.776095989108551       16.25924180505487  8.2297683357465617e-06
    17   1      10.316089539840794      16.152968961705298   8.127952708874121e-06
    18   1       13.85294366697646      17.570422945602132      1.7431265349897429
    19   1      13.487186477361121      20.126757017818676      1.7431262332493254
    20   1      14.889462759706742      18.951346801561442  7.9719315920917109e-06
    21   1      12.438338492193447      18.770689908512082  7.9373668895376551e-06
    22   1      15.916084685750981      20.424760116626402      1.7431261681691361
    23   1      15.562045591326964      22.998689326743147      1.7431258779424883
    24   1      16.943991947757787      21.938377076694962  7.6072136511784201e-06
    25   1      14.526770568368246      21.537071458832912  7.6668637604466947e-06
    26   1      0.5574035182109498      23.436137870831288      1.7431258073631923
    27   1      1.6096300941345227      24.883250903561361  7.2708669710726871e-06
    28   1      16.599922836900156      24.480066759427274  7.3054179089988218e-06
    29   1      4.0605053393045241      13.740758274152981      1.7431269310977109
    30   1      6.5264878969924496      13.688251937075179       1.743127022163895
    31   1      6.5264866478796248      16.311748459635083      1.7431267253479628
    32   1      7.9563072015020282      15.000000092213853  8.4983285170299879e-06
    33   1      5.3691670616308045      15.000000135827605   8.515375081064878e-06
    34   1      8.8860767263502325       16.74945394268542      1.7431266575671907
    35   1      8.5663801699145097      19.377278158652018      1.7431263476533372
    36   1      9.9460090265124883      18.497375819659027   7.937082395086817e-06
    37   1      7.5632219515441044      17.805922293500885  8.1432892813519312e-06
    38   1      11.017192147666218      19.904454310993486      1.7431262429555001
    39   1      10.671394397000741      22.382093989723899      1.7431259745033383
    40   1      12.078427858573592      21.277450445120792  7.6809380049944944e-06
    41   1      9.6118300423240726      20.942405454079108  7.7310773482423158e-06
    42   1      13.128377503386416      22.670918081477879      1.7431259318726664
    43   1      12.774710225210264      25.208179209501822      1.7431256388896841
    44   1      14.171216461275762      24.097127421832141  7.3682806444492958e-06
    45   1      11.726141649753973      23.791392988659567  7.4160147189019258e-06
    46   1      2.8650478951337215      14.999999948947249  8.5899962488082675e-06
    47   1      4.0605041571175695      16.259241874890364      1.7431266231614742
    48   1      3.7227464721060657      18.770689902436175      1.7431263278948772
    49   1      5.1373517009012062      17.570422969888341  8.2181102739831787e-06
    50   1      2.6611023354758534      17.461166685919324  8.1924668569602177e-06
    51   1      6.1738708041411003      18.951346873245569      1.7431264236833313
    52   1      5.8111786225651727      21.537071466039293      1.7431261244647922
    53   1      7.2004927128298135       20.42476016650258  7.8652650400682092e-06
    54   1      4.7715945271869717      20.126757073452978  7.9027473242526724e-06
    55   1      8.2283999852380934      21.938377112566485      1.7431260656675365
    56   1      7.8843309226214551      24.480066720346287      1.7431257755261842
    57   1      9.2729954735436486      23.436137912197239  7.4800562223078427e-06
    58   1       6.846453669919403      22.998689308885901  7.5733690667767449e-06
    59   1      10.325222059606665      24.883250906910035      1.7431256969866724
    60   1      2.3016002423146782      19.904454213382195  7.8486224016685936e-06
    61   1      3.3628359108602646      21.277450465166311      1.7431260784743869
    62   1      3.0105496694025895      23.791392980286247      1.7431258071936107
    63   1       4.412785534653457      22.670918071747394  7.5916798302796068e-06
    64   1      1.9558023949392793      22.382094022106884  7.5658448591208613e-06
    65   1      5.4556245075367595      24.097127398057722      1.7431258237939498
    66   1      4.0591182668500023      25.208179178602165  7.2822823234935416e-06
    67   1      1.6004990986762109      13.847030523460575      1.7431269037138448
    68   1        10.3160909047291      13.847030355912963  8.6309553130098646e-06
    69   1      17.281974746790723      10.622721985541077  8.8691289697035734e-06
    70   1      16.278816069156338      12.194077938311025      1.7431270632016262
    71   1      16.599927127463292      5.5199332687167413  9.0131139384046604e-06
    72   1      16.943995424561177      8.0616229165672877  8.9647647320475885e-06
    73   1      14.526773978038497      8.4629286330534512  8.9508818445745602e-06
    74   1      15.916087726907946         9.5752399515533      1.7431272630957226
    75   1      15.562049462706737      7.0013107385874918      1.7431273797152298
    76   1      14.889465353500377      11.048653306452991   8.789885513178888e-06
    77   1       12.43834088810396      11.229310105108453   8.819817103269745e-06
    78   1      13.852945665321299      12.429577185996337      1.7431271091808922
    79   1      13.487189464977915      9.8732429672474353      1.7431273085429255
    80   1      2.6611043733713351      12.538833273957636  8.8489046840042552e-06
    81   1      14.171220639201959      5.9028726459917777   9.028354609826665e-06
    82   1      11.726145687043655      6.2086069930118128  9.0655433920698765e-06
    83   1      13.128381234868478      7.3290819643430041      1.7431274124588123
    84   1      12.774714724069108       4.791820833089389      1.7431274516527613
    85   1      12.078431199267811      8.7225494617644159  8.9889738078543083e-06
    86   1      9.6118331197522018      9.0575942347246183   9.013979504719013e-06
    87   1      11.017195043766531      10.095545682297143      1.7431273744355726
    88   1      10.671397979226652       7.617905817420322      1.7431274552438734
    89   1        9.94601151373808      11.502624099869465  8.8787726496830057e-06
    90   1      7.5632240877366321      12.194077947708251  8.7813274470370173e-06
    91   1      8.5663827041659744      10.622721942481917      1.7431273439129669
    92   1      10.325226428263056      5.1167490407805332      1.7431274896387705
    93   1      9.2729994122021875      6.5638620298618946  9.0905513870933792e-06
    94   1      6.8464574819322905      7.0013107075473471  9.0698367887810254e-06
    95   1      8.2284034956150496      8.0616229264639685      1.7431274456230113
    96   1      7.8843351458429769      5.5199332349396855      1.7431274937164738
    97   1       7.200495805686951      9.5752399609484371  8.9686293830872202e-06
    98   1      4.7715975219406541      9.8732430122101675   8.941176218205297e-06
    99   1      6.1738734109852329      11.048653344807633      1.7431272349393958
   100   1      5.8111820237750429      8.4629286190104267      1.7431273840968657
   101   1      5.1373537450030344      12.429577203665119  8.7764587597065286e-06
   102   1      11.376696267028997      12.538833012898593      1.7431272502505366
   103   1      3.7227490166666675      11.229310102382385      1.7431271696283031
   104   1      4.0591227662509768      4.7918207904981784  9.0530678077817974e-06
   105   1      5.4556286827191309      5.9028726177100594      1.7431274551182827
   106   1      4.4127892934491477      7.3290819479647098  9.0292442805139089e-06
   107   1      1.9558060753344704      7.6179058561635742  8.9975110249215032e-06
   108   1      3.3628392458006973      8.7225494839421174      1.7431273343226292
   109   1      3.0105537525824997      6.2086069725627624      1.7431274101956895
   110   1      2.3016030562178105      10.095545598166552  8.9301440125621811e-06
   111   1      1.2304194645801483      11.502623869862248      1.7431271664372137
   112   1     0.89624124396451621       9.057594381890695      1.7431273055843712
   113   1        1.60963448326006      5.1167490173301644  9.0221809152479699e-06
   114   1     0.55740746524214535       6.563861992461355      1.7431273845721187
   115   1      1.6004974640240013      16.152969136948357      5.2293632173051412
   116   1      0.1704862693209325      13.250546708410084      3.4862455300328623
   117   1      14.084758987642635      15.000000043335305      5.2293636085883408
   118   1      15.242079828813365      13.688251875370085      3.4862453325267362
   119   1      12.776097375869938      13.740758200448937      3.4862453304998091
   120   1      16.671899133481979      15.000000028942111      5.2293635605903352
   121   1      16.278813870549488      17.805922232083162      5.2293632210346486
   122   1     0.17048484166245606       16.74945383797035      3.4862450204182087
   123   1      15.242078587612893      16.311748381817154       3.486245040098797
   124   1      1.2304171819364693      18.497375565867088      5.2293630466718009
   125   1     0.89623801630688971      20.942405579539013      5.2293628449465022
   126   1      17.281972021143211      19.377278156421937      3.4862446848269815
   127   1      8.8860782852642277      13.250546740822244      5.2293639777992542
   128   1      11.580639827121855      15.000000253296633        5.22936372798788
   129   1      11.376694335458472       17.46116643467434      5.2293633326691848
   130   1      12.776095989108551       16.25924180505487      3.4862450088469417
   131   1      10.316089539840794      16.152968961705298      3.4862449070313155
   132   1       13.85294366697646      17.570422945602132      5.2293633140683484
   133   1      13.487186477361121      20.126757017818676      5.2293630123279309
   134   1      14.889462759706742      18.951346801561442      3.4862447510101982
   135   1      12.438338492193447      18.770689908512082      3.4862447164454959
   136   1      15.916084685750981      20.424760116626402      5.2293629472477416
   137   1      15.562045591326964      22.998689326743147      5.2293626570210927
   138   1      16.943991947757787      21.938377076694962       3.486244386292257
   139   1      14.526770568368246      21.537071458832912      3.4862444459423663
   140   1      0.5574035182109498      23.436137870831288      5.2293625864417983
   141   1      1.6096300941345227      24.883250903561361      3.4862440499455771
   142   1      16.599922836900156      24.480066759427274      3.4862440844965152
   143   1      4.0605053393045241      13.740758274152981      5.2293637101763171
   144   1      6.5264878969924496      13.688251937075179      5.2293638012425019
   145   1      6.5264866478796248      16.311748459635083      5.2293635044265692
   146   1      7.9563072015020282      15.000000092213853      3.4862452774071233
   147   1      5.3691670616308045      15.000000135827605       3.486245294453687
   148   1      8.8860767263502325       16.74945394268542      5.2293634366457953
   149   1      8.5663801699145097      19.377278158652018      5.2293631267319425
   150   1      9.9460090265124883      18.497375819659027      3.4862447161610008
   151   1      7.5632219515441044      17.805922293500885      3.4862449223678875
   152   1      11.017192147666218      19.904454310993486      5.2293630220341063
   153   1      10.671394397000741      22.382093989723899      5.2293627535819445
   154   1      12.078427858573592      21.277450445120792      3.4862444600166107
   155   1      9.6118300423240726      20.942405454079108      3.4862445101559545
   156   1      13.128377503386416      22.670918081477879      5.2293627109512713
   157   1      12.774710225210264      25.208179209501822      5.2293624179682912
   158   1      14.171216461275762      24.097127421832141      3.4862441473592507
   159   1      11.726141649753973      23.791392988659567      3.4862441950933252
   160   1      2.8650478951337215      14.999999948947249      3.4862453690748549
   161   1      4.0605041571175695      16.259241874890364      5.2293634022400797
   162   1      3.7227464721060657      18.770689902436175      5.2293631069734827
   163   1      5.1373517009012062      17.570422969888341        3.48624499718888
   164   1      2.6611023354758534      17.461166685919324      3.4862449715454633
   165   1      6.1738708041411003      18.951346873245569      5.2293632027619363
   166   1      5.8111786225651727      21.537071466039293      5.2293629035433975
   167   1      7.2004927128298135       20.42476016650258      3.4862446443436466
   168   1      4.7715945271869717      20.126757073452978      3.4862446818259301
   169   1      8.2283999852380934      21.938377112566485      5.2293628447461415
   170   1      7.8843309226214551      24.480066720346287      5.2293625546047906
   171   1      9.2729954735436486      23.436137912197239      3.4862442591348288
   172   1       6.846453669919403      22.998689308885901      3.4862443524476734
   173   1      10.325222059606665      24.883250906910035      5.2293624760652788
   174   1      2.3016002423146782      19.904454213382195      3.4862446277010077
   175   1      3.3628359108602646      21.277450465166311       5.229362857552994
   176   1      3.0105496694025895      23.791392980286247      5.2293625862722166
   177   1       4.412785534653457      22.670918071747394      3.4862443707584361
   178   1      1.9558023949392793      22.382094022106884      3.4862443449234655
   179   1      5.4556245075367595      24.097127398057722      5.2293626028725555
   180   1      4.0591182668500023      25.208179178602165      3.4862440613609293
   181   1      1.6004990986762109      13.847030523460575      5.2293636827924512
   182   1        10.3160909047291      13.847030355912963      3.4862454100339195
   183   1      17.281974746790723      10.622721985541077      3.4862456482075759
   184   1      16.278816069156338      12.194077938311025      5.2293638422802315
   185   1      16.599927127463292      5.5199332687167413      3.4862457921925447
   186   1      16.943995424561177      8.0616229165672877      3.4862457438433383
   187   1      14.526773978038497      8.4629286330534512       3.486245729960451
   188   1      15.916087726907946         9.5752399515533      5.2293640421743275
   189   1      15.562049462706737      7.0013107385874918      5.2293641587938353
   190   1      14.889465353500377      11.048653306452991      3.4862455689641196
   191   1       12.43834088810396      11.229310105108453      3.4862455988957097
   192   1      13.852945665321299      12.429577185996337      5.2293638882594982
   193   1      13.487189464977915      9.8732429672474353      5.2293640876215308
   194   1      2.6611043733713351      12.538833273957636      3.4862456279832901
   195   1      14.171220639201959      5.9028726459917777      3.4862458074332157
   196   1      11.726145687043655      6.2086069930118128      3.4862458446219984
   197   1      13.128381234868478      7.3290819643430041      5.2293641915374183
   198   1      12.774714724069108       4.791820833089389      5.2293642307313668
   199   1      12.078431199267811      8.7225494617644159      3.4862457680524144
   200   1      9.6118331197522018      9.0575942347246183      3.4862457930581106
   201   1      11.017195043766531      10.095545682297143      5.2293641535141786
   202   1      10.671397979226652       7.617905817420322        5.22936423432248
   203   1        9.94601151373808      11.502624099869465       3.486245657851256
   204   1      7.5632240877366321      12.194077947708251      3.4862455604060534
   205   1      8.5663827041659744      10.622721942481917      5.2293641229915728
   206   1      10.325226428263056      5.1167490407805332      5.2293642687173767
   207   1      9.2729994122021875      6.5638620298618946      3.4862458696299932
   208   1      6.8464574819322905      7.0013107075473471      3.4862458489153956
   209   1      8.2284034956150496      8.0616229264639685      5.2293642247016168
   210   1      7.8843351458429769      5.5199332349396855      5.2293642727950802
   211   1       7.200495805686951      9.5752399609484371      3.4862457477079896
   212   1      4.7715975219406541      9.8732430122101675      3.4862457202548249
   213   1      6.1738734109852329      11.048653344807633      5.2293640140180031
   214   1      5.8111820237750429      8.4629286190104267      5.2293641631754717
   215   1      5.1373537450030344      12.429577203665119      3.4862455555373657
   216   1      11.376696267028997      12.538833012898593      5.2293640293291412
   217   1      3.7227490166666675      11.229310102382385      5.2293639487069097
   218   1      4.0591227662509768      4.7918207904981784      3.4862458321464138
   219   1      5.4556286827191309      5.9028726177100594      5.2293642341968889
   220   1      4.4127892934491477      7.3290819479647098      3.4862458083228867
   221   1      1.9558060753344704      7.6179058561635742      3.4862457765896311
   222   1      3.3628392458006973      8.7225494839421174      5.2293641134012345
   223   1      3.0105537525824997      6.2086069725627624      5.2293641892742961
   224   1      2.3016030562178105      10.095545598166552      3.4862457092226187
   225   1      1.2304194645801483      11.502623869862248      5.2293639455158187
   226   1     0.89624124396451621       9.057594381890695      5.2293640846629774
   227   1        1.60963448326006      5.1167490173301644      3.4862458012595217
   228   1     0.55740746524214535       6.563861992461355      5.2293641636507253
