(written by ASE)

160 atoms
1 atom types

0.0      12.566209407074302  xlo xhi
0.0                      30  ylo yhi
0.0      6.9724735581572146  zlo zhi

Atoms # atomic

     1   1      12.539356612947953      18.480602876719246      1.3073391150577869
     2   1      11.568876447135795       16.72350571039388      3.0504574721013342
     3   1      7.7486317457987592      17.480921420474715      1.3073390996333545
     4   1      9.2080234824087821      16.286654827907739      3.0504574509995779
     5   1       6.750394450275353      16.150831990281006      3.0504574752401066
     6   1      10.182717772118803       17.75285218759106        1.30733909210982
     7   1      9.6800402080492987      20.330887595803205      1.3073391361197992
     8   1      11.110590562823768      19.330184117702089      3.0504575120082311
     9   1      8.7228132225641755      18.853843584668624      3.0504575059485042
    10   1      12.072258285699141      20.917871288141498      1.3073391469882498
    11   1      11.596439287148094      23.400138209931498       1.307339182569323
    12   1      10.632184947015888      21.866418966864131      3.0504575486020165
    13   1  0.00083863001273302366      24.900817043707832      3.0504575959709936
    14   1      2.9249187739969513      16.286654858867763      1.3073390583845816
    15   1       5.285771742812587      16.723505730974921      1.3073390869138917
    16   1      4.8274858562817684      19.330184125125214      1.3073391244388932
    17   1      6.2562519183896121      18.480602846011635      3.0504575115397796
    18   1      3.8996130595905609      17.752852218674775      3.0504574839940499
    19   1      7.2502307157916457      19.929577035643092       1.307339137220441
    20   1      6.7667957698957188      22.407394416272496      1.3073391714839098
    21   1      8.2258360226270693      21.376274158068497      3.0504575438980055
    22   1      5.7891535882189302      20.917871268351803       3.050457539790298
    23   1      9.1892964982369278      22.866908137862936      1.3073391741529821
    24   1      10.150514494363581      24.383445114099345      3.0504575875736331
    25   1      7.7376993806689054       23.88782310117486       3.050457582704873
    26   1     0.46728976055875104      16.150832013108072       1.307339080675801
    27   1      1.4655270402468601      17.480921455460248      3.0504574868909282
    28   1      2.4397085118040751      18.853843624340016      1.3073391143472313
    29   1      1.9427313088751881      21.376274197462664      1.3073391515758934
    30   1      3.3969355007429587       20.33088762084725      3.0504575258067144
    31   1     0.96712599936622112      19.929577076561799      3.0504575231866475
    32   1      4.3490802466936218      21.866418965982575      1.3073391622470245
    33   1      3.8674097931369524      24.383445109937185      1.3073391995333312
    34   1      5.3133345915577053       23.40013818462424      3.0504575767693916
    35   1      2.9061917900400895       22.86690815988689      3.0504575654621329
    36   1        6.28394334219798      24.900817009698102      1.3073392092792029
    37   1     0.48369105779052085      22.407394454924486      3.0504575569613199
    38   1      1.4545946703808958      23.887823133866476      1.3073391899883555
    39   1      11.568876272457066      13.276494185401504      3.0504573435894198
    40   1      10.652328923788252      14.999999970154306      1.3073390229094362
    41   1      10.632184646116334       8.133581011782681      3.0504572031363706
    42   1      11.596438938734499      6.5998617887385649      1.3073387708990012
    43   1      11.110590320363295      10.669815840621453      3.0504572747686178
    44   1      8.7228129748749623      11.146156361185845      3.0504572921789856
    45   1      10.182717543811318      12.247147742192425      1.3073389394037143
    46   1      9.6800399386730955      9.6691123599231616      1.3073388599681681
    47   1      9.2080233219848289      13.713345088503843      3.0504573716947454
    48   1      6.7503942721169725      13.849168022361766      3.0504573489389482
    49   1       8.062393067501251      14.999999963743562      1.3073390225909072
    50   1      7.7486315308796643      12.519078545102616      1.3073389332595842
    51   1      10.150514104785266      5.6165548721306777       3.050457139474215
    52   1      7.7376990015723628      6.1121768709483462      3.0504571514880219
    53   1      9.1892961583842716      7.1330918335721236      1.3073387882534202
    54   1      8.2258357245347256      8.6237257989724014      3.0504572175631619
    55   1      5.7891533064530947      9.0821287132203423       3.050457224925021
    56   1      7.2502304466258991       10.07042292987849      1.3073388635047674
    57   1      6.7667954443757194      7.5926055503433361        1.30733879932263
    58   1      6.2562516803296955       11.51939712203307      3.0504572873361995
    59   1         3.8996128374654      12.247147751558671      3.0504573266838371
    60   1       5.285771561191611      13.276494187640225      1.3073389543877569
    61   1      4.8274856148650862      10.669815838487253      1.3073388851289514
    62   1      4.3692242182335326      14.999999985202436      3.0504574132237012
    63   1      1.7792883673603681      15.000000001839766      3.0504574115112062
    64   1      2.9249186210610332      13.713345110857915      1.3073389817240615
    65   1      6.2839429246579916       5.099182965608648      1.3073387359590214
    66   1      5.3133342290235657      6.5998617859390265      3.0504571625223114
    67   1      2.9061914498483477      7.1330918241076091      3.0504571787412291
    68   1       4.349079934797305       8.133581005696044      1.3073388147668066
    69   1      3.8674093973591948      5.6165548673451298       1.307338749994019
    70   1      3.3969352297361874      9.6691123568152904      3.0504572511643113
    71   1     0.96712574878393232      10.070422939647074      3.0504572524700437
    72   1      2.4397082699017703      11.146156373211682      1.3073389019719426
    73   1      1.9427310209166222      8.6237257975935933      1.3073388277454661
    74   1       1.465526827919682      12.519078567054834      3.0504573206900263
    75   1     0.46728956267277194      13.849168043870634      1.3073389564072877
    76   1      12.539356396422123      11.519397145707302      1.3073388939820907
    77   1   0.0008382217460592478       5.099182956292168      3.0504571268462728
    78   1      1.4545942962897214      6.1121768597352144      1.3073387614071572
    79   1     0.48369074084351082      7.5926055478554275      3.0504571850866364
    80   1      12.072258014293329      9.0821287177488443      1.3073388362179574
    81   1      12.539356612947953      18.480602876719246      4.7935758941363931
    82   1      11.568876447135795       16.72350571039388      6.5366942511799397
    83   1      7.7486317457987592      17.480921420474715      4.7935758787119589
    84   1      9.2080234824087821      16.286654827907739       6.536694230078183
    85   1       6.750394450275353      16.150831990281006      6.5366942543187134
    86   1      10.182717772118803       17.75285218759106      4.7935758711884269
    87   1      9.6800402080492987      20.330887595803205      4.7935759151984039
    88   1      11.110590562823768      19.330184117702089      6.5366942910868362
    89   1      8.7228132225641755      18.853843584668624      6.5366942850271093
    90   1      12.072258285699141      20.917871288141498      4.7935759260668558
    91   1      11.596439287148094      23.400138209931498       4.793575961647929
    92   1      10.632184947015888      21.866418966864131      6.5366943276806238
    93   1  0.00083863001273302366      24.900817043707832         6.5366943750496
    94   1      2.9249187739969513      16.286654858867763      4.7935758374631865
    95   1       5.285771742812587      16.723505730974921      4.7935758659924979
    96   1      4.8274858562817684      19.330184125125214      4.7935759035174996
    97   1      6.2562519183896121      18.480602846011635      6.5366942906183851
    98   1      3.8996130595905609      17.752852218674775      6.5366942630726568
    99   1      7.2502307157916457      19.929577035643092      4.7935759162990479
   100   1      6.7667957698957188      22.407394416272496      4.7935759505625155
   101   1      8.2258360226270693      21.376274158068497      6.5366943229766106
   102   1      5.7891535882189302      20.917871268351803      6.5366943188689053
   103   1      9.1892964982369278      22.866908137862936      4.7935759532315885
   104   1      10.150514494363581      24.383445114099345      6.5366943666522399
   105   1      7.7376993806689054       23.88782310117486      6.5366943617834794
   106   1     0.46728976055875104      16.150832013108072       4.793575859754406
   107   1      1.4655270402468601      17.480921455460248      6.5366942659695351
   108   1      2.4397085118040751      18.853843624340016       4.793575893425837
   109   1      1.9427313088751881      21.376274197462664      4.7935759306544989
   110   1      3.3969355007429587       20.33088762084725      6.5366943048853203
   111   1     0.96712599936622112      19.929577076561799      6.5366943022652544
   112   1      4.3490802466936218      21.866418965982575      4.7935759413256305
   113   1      3.8674097931369524      24.383445109937185       4.793575978611937
   114   1      5.3133345915577053       23.40013818462424      6.5366943558479988
   115   1      2.9061917900400895       22.86690815988689      6.5366943445407397
   116   1        6.28394334219798      24.900817009698102      4.7935759883578086
   117   1     0.48369105779052085      22.407394454924486      6.5366943360399254
   118   1      1.4545946703808958      23.887823133866476      4.7935759690669606
   119   1      11.568876272457066      13.276494185401504      6.5366941226680257
   120   1      10.652328923788252      14.999999970154306       4.793575801988041
   121   1      10.632184646116334       8.133581011782681      6.5366939822149766
   122   1      11.596438938734499      6.5998617887385649      4.7935755499776063
   123   1      11.110590320363295      10.669815840621453      6.5366940538472242
   124   1      8.7228129748749623      11.146156361185845      6.5366940712575925
   125   1      10.182717543811318      12.247147742192425      4.7935757184823204
   126   1      9.6800399386730955      9.6691123599231616      4.7935756390467734
   127   1      9.2080233219848289      13.713345088503843      6.5366941507733527
   128   1      6.7503942721169725      13.849168022361766      6.5366941280175546
   129   1       8.062393067501251      14.999999963743562      4.7935758016695136
   130   1      7.7486315308796643      12.519078545102616      4.7935757123381899
   131   1      10.150514104785266      5.6165548721306777       6.536693918552821
   132   1      7.7376990015723628      6.1121768709483462      6.5366939305666287
   133   1      9.1892961583842716      7.1330918335721236      4.7935755673320273
   134   1      8.2258357245347256      8.6237257989724014      6.5366939966417679
   135   1      5.7891533064530947      9.0821287132203423      6.5366940040036265
   136   1      7.2502304466258991       10.07042292987849      4.7935756425833738
   137   1      6.7667954443757194      7.5926055503433361      4.7935755784012368
   138   1      6.2562516803296955       11.51939712203307      6.5366940664148077
   139   1         3.8996128374654      12.247147751558671      6.5366941057624421
   140   1       5.285771561191611      13.276494187640225      4.7935757334663629
   141   1      4.8274856148650862      10.669815838487253       4.793575664207558
   142   1      4.3692242182335326      14.999999985202436      6.5366941923023063
   143   1      1.7792883673603681      15.000000001839766      6.5366941905898122
   144   1      2.9249186210610332      13.713345110857915      4.7935757608026686
   145   1      6.2839429246579916       5.099182965608648      4.7935755150376282
   146   1      5.3133342290235657      6.5998617859390265      6.5366939416009169
   147   1      2.9061914498483477      7.1330918241076091      6.5366939578198346
   148   1       4.349079934797305       8.133581005696044      4.7935755938454117
   149   1      3.8674093973591948      5.6165548673451298      4.7935755290726245
   150   1      3.3969352297361874      9.6691123568152904      6.5366940302429164
   151   1     0.96712574878393232      10.070422939647074      6.5366940315486497
   152   1      2.4397082699017703      11.146156373211682       4.793575681050549
   153   1      1.9427310209166222      8.6237257975935933      4.7935756068240716
   154   1       1.465526827919682      12.519078567054834      6.5366940997686331
   155   1     0.46728956267277194      13.849168043870634      4.7935757354858932
   156   1      12.539356396422123      11.519397145707302      4.7935756730606958
   157   1   0.0008382217460592478       5.099182956292168      6.5366939059248779
   158   1      1.4545942962897214      6.1121768597352144      4.7935755404857625
   159   1     0.48369074084351082      7.5926055478554275      6.5366939641652433
   160   1      12.072258014293329      9.0821287177488443      4.7935756152965627
