(written by ASE)

160 atoms
1 atom types

0.0      12.746228261363814  xlo xhi
0.0                      30  ylo yhi
0.0      7.0723586277786685  zlo zhi

Atoms # atomic

     1   1      12.718990784070371      18.480602876719246      1.3260675702376028
     2   1      11.734607879421006       16.72350571039388      3.0941571942209918
     3   1      7.8596357696856094      17.480921420474715      1.3260675545922056
     4   1      9.3399342109249712      16.286654827907739      3.0941571728169395
     5   1      6.8470980969817932      16.150831990281006      3.0941571974047291
     6   1       10.32859160944785       17.75285218759106       1.326067546960892
     7   1      9.8187128730733644      20.330887595803205      1.3260675916013418
     8   1      11.269756761540258      19.330184117702089      3.0941572346995798
     9   1      8.8477730088958779      18.853843584668624      3.0941572285530436
    10   1      12.245200979464471      20.917871288141498      1.3260676026254896
    11   1      11.762565574454358      23.400138209931498       1.326067638716284
    12   1      10.784497684354047      21.866418966864131      3.0941572718175943
    13   1  0.00085064391518955998      24.900817043707832       3.094157319865162
    14   1      2.9668200752985512      16.286654858867763      1.3260675127525183
    15   1      5.3614937479417817      16.723505730974921      1.3260675416905285
    16   1       4.896642627810456      19.330184125125214      1.3260675797530994
    17   1      6.3458766624959004      18.480602846011635      3.0941572342244177
    18   1       3.955477469646048      17.752852218674775      3.0941572062840783
    19   1      7.3540948314140291      19.929577035643092      1.3260675927177508
    20   1      6.8637343758226566      22.407394416272496      1.3260676274720653
    21   1      8.3436762979556907      21.376274158068497      3.0941572670461954
    22   1      5.8720868549262715      20.917871268351803      3.0941572628796425
    23   1      9.3209389509250062      22.866908137862936      1.3260676301793737
    24   1       10.29592699948193      24.383445114099345      3.0941573113475038
    25   1      7.8485467915484763       23.88782310117486       3.094157306408996
    26   1     0.47398398031842259      16.150832013108072      1.3260675353630733
    27   1      1.4865216369600918      17.480921455460248      3.0941572092224563
    28   1      2.4746588708875468      18.853843624340016      1.3260675695168682
    29   1      1.9705621569127192      21.376274197462664      1.3260676072788542
    30   1        3.44559873856827       20.33088762084725      3.0941572486957352
    31   1     0.98098068765921542      19.929577076561799      3.0941572460381344
    32   1      4.4113835569330799      21.866418965982575      1.3260676181028559
    33   1      3.9228128711436439      24.383445109937185      1.3260676559233124
    34   1      5.3894514518330547       23.40013818462424      3.0941573003884848
    35   1      2.9478248155166571       22.86690815988689      3.0941572889192428
    36   1      6.3739647833690825      24.900817009698102         1.3260676658088
    37   1     0.49062023644995917      22.407394454924486      3.0941572802966499
    38   1      1.4754326540189997      23.887823133866476       1.326067646241599
    39   1      11.734607702239895      13.276494185401504      3.0941570638680633
    40   1      10.804930236264859      14.999999970154306      1.3260674767691689
    41   1      10.784497379143918       8.133581011782681      3.0941569214029356
    42   1       11.76256522104952      6.5998617887385649      1.3260672211485258
    43   1      11.269756515606387      10.669815840621453      3.0941569940613598
    44   1        8.84777275765836      11.146156361185845      3.0941570117211423
    45   1      10.328591377869717      12.247147742192425      1.3260673920671751
    46   1       9.818712599838177      9.6691123599231616      1.3260673114936647
    47   1      9.3399340482028457      13.713345088503843      3.0941570923760153
    48   1      6.8470979162711822      13.849168022361766      3.0941570692942273
    49   1      8.1778919196870365      14.999999963743562      1.3260674764460769
    50   1      7.8596355516876644      12.519078545102616      1.3260673858350265
    51   1      10.295926604322661      5.6165548721306777      3.0941568568287798
    52   1      7.8485464070211366      6.1121768709483462      3.0941568690146921
    53   1      9.3209386062037467      7.1330918335721236       1.326067238751558
    54   1      8.3436759955929869      8.6237257989724014      3.0941569360363999
    55   1      5.8720865691239634      9.0821287132203423      3.0941569435037222
    56   1      7.3540945583923145       10.07042292987849      1.3260673150809281
    57   1      6.8637340456393785      7.5926055503433361      1.3260672499793411
    58   1      6.3458764210256255       11.51939712203307      3.0941570068089805
    59   1      3.9554772443388044      12.247147751558671      3.0941570467202979
    60   1      5.3614935637189705      13.276494187640225      1.3260674072658736
    61   1      4.8966423829353278      10.669815838487253      1.3260673370148921
    62   1      4.4318161035364785      14.999999985202436      3.0941571344998993
    63   1      1.8047777924500497      15.000000001839766      3.0941571327628719
    64   1        2.96681992017173      13.713345110857915       1.326067434993788
    65   1      6.3739643598475713       5.099182965608648      1.3260671857080091
    66   1       5.389451084105386      6.5998617859390265      3.0941568802070547
    67   1      2.9478244704514549      7.1330918241076091      3.0941568966583186
    68   1      4.4113832405686528       8.133581005696044      1.3260672656447652
    69   1      3.9228124696961211      5.6165548673451298      1.3260671999440667
    70   1      3.4455984636791563      9.6691123568152904      3.0941569701189069
    71   1     0.98098043348717778      10.070422939647074      3.0941569714433448
    72   1      2.4746586255198393      11.146156373211682      1.3260673540991696
    73   1      1.9705618648289658      8.6237257975935933      1.3260672788093522
    74   1      1.4865214215911933      12.519078567054834      3.0941570406406216
    75   1     0.47398377959760241      13.849168043870634      1.3260674093143354
    76   1      12.718990564442672      11.519397145707302      1.3260673459948582
    77   1  0.00085022979983886992       5.099182956292168      3.0941568440199347
    78   1      1.4754322745687338      6.1121768597352144      1.3260672115207055
    79   1     0.49061991496248386      7.5926055478554275      3.0941569030946279
    80   1      12.245200704170598      9.0821287177488443      1.3260672874032173
    81   1      12.718990784070371      18.480602876719246      4.8622468841269368
    82   1      11.734607879421006       16.72350571039388      6.6303365081103252
    83   1      7.8596357696856094      17.480921420474715      4.8622468684815381
    84   1      9.3399342109249712      16.286654827907739      6.6303364867062724
    85   1      6.8470980969817932      16.150831990281006      6.6303365112940638
    86   1       10.32859160944785       17.75285218759106      4.8622468608502256
    87   1      9.8187128730733644      20.330887595803205      4.8622469054906743
    88   1      11.269756761540258      19.330184117702089      6.6303365485889127
    89   1      8.8477730088958779      18.853843584668624      6.6303365424423761
    90   1      12.245200979464471      20.917871288141498       4.862246916514823
    91   1      11.762565574454358      23.400138209931498      4.8622469526056173
    92   1      10.784497684354047      21.866418966864131       6.630336585706929
    93   1  0.00085064391518955998      24.900817043707832      6.6303366337544958
    94   1      2.9668200752985512      16.286654858867763      4.8622468266418508
    95   1      5.3614937479417817      16.723505730974921      4.8622468555798628
    96   1       4.896642627810456      19.330184125125214      4.8622468936424337
    97   1      6.3458766624959004      18.480602846011635      6.6303365481137506
    98   1       3.955477469646048      17.752852218674775      6.6303365201734117
    99   1      7.3540948314140291      19.929577035643092      4.8622469066070853
   100   1      6.8637343758226566      22.407394416272496      4.8622469413613993
   101   1      8.3436762979556907      21.376274158068497      6.6303365809355279
   102   1      5.8720868549262715      20.917871268351803      6.6303365767689773
   103   1      9.3209389509250062      22.866908137862936      4.8622469440687075
   104   1       10.29592699948193      24.383445114099345      6.6303366252368381
   105   1      7.8485467915484763       23.88782310117486      6.6303366202983298
   106   1     0.47398398031842259      16.150832013108072       4.862246849252406
   107   1      1.4865216369600918      17.480921455460248      6.6303365231117901
   108   1      2.4746588708875468      18.853843624340016      4.8622468834062014
   109   1      1.9705621569127192      21.376274197462664      4.8622469211681878
   110   1        3.44559873856827       20.33088762084725      6.6303365625850681
   111   1     0.98098068765921542      19.929577076561799      6.6303365599274686
   112   1      4.4113835569330799      21.866418965982575       4.862246931992189
   113   1      3.9228128711436439      24.383445109937185       4.862246969812646
   114   1      5.3894514518330547       23.40013818462424      6.6303366142778195
   115   1      2.9478248155166571       22.86690815988689      6.6303366028085771
   116   1      6.3739647833690825      24.900817009698102      4.8622469796981331
   117   1     0.49062023644995917      22.407394454924486      6.6303365941859829
   118   1      1.4754326540189997      23.887823133866476      4.8622469601309319
   119   1      11.734607702239895      13.276494185401504      6.6303363777573967
   120   1      10.804930236264859      14.999999970154306      4.8622467906585021
   121   1      10.784497379143918       8.133581011782681       6.630336235292269
   122   1       11.76256522104952      6.5998617887385649      4.8622465350378583
   123   1      11.269756515606387      10.669815840621453      6.6303363079506941
   124   1        8.84777275765836      11.146156361185845      6.6303363256104761
   125   1      10.328591377869717      12.247147742192425      4.8622467059565082
   126   1       9.818712599838177      9.6691123599231616      4.8622466253829977
   127   1      9.3399340482028457      13.713345088503843        6.63033640626535
   128   1      6.8470979162711822      13.849168022361766      6.6303363831835602
   129   1      8.1778919196870365      14.999999963743562      4.8622467903354112
   130   1      7.8596355516876644      12.519078545102616      4.8622466997243601
   131   1      10.295926604322661      5.6165548721306777      6.6303361707181141
   132   1      7.8485464070211366      6.1121768709483462      6.6303361829040268
   133   1      9.3209386062037467      7.1330918335721236      4.8622465526408929
   134   1      8.3436759955929869      8.6237257989724014      6.6303362499257341
   135   1      5.8720865691239634      9.0821287132203423       6.630336257393056
   136   1      7.3540945583923145       10.07042292987849      4.8622466289702624
   137   1      6.8637340456393785      7.5926055503433361      4.8622465638686752
   138   1      6.3458764210256255       11.51939712203307      6.6303363206983157
   139   1      3.9554772443388044      12.247147751558671      6.6303363606096299
   140   1      5.3614935637189705      13.276494187640225      4.8622467211552065
   141   1      4.8966423829353278      10.669815838487253      4.8622466509042264
   142   1      4.4318161035364785      14.999999985202436      6.6303364483892322
   143   1      1.8047777924500497      15.000000001839766      6.6303364466522057
   144   1        2.96681992017173      13.713345110857915      4.8622467488831225
   145   1      6.3739643598475713       5.099182965608648      4.8622464995973429
   146   1       5.389451084105386      6.5998617859390265      6.6303361940963876
   147   1      2.9478244704514549      7.1330918241076091       6.630336210547652
   148   1      4.4113832405686528       8.133581005696044      4.8622465795340979
   149   1      3.9228124696961211      5.6165548673451298      4.8622465138333997
   150   1      3.4455984636791563      9.6691123568152904      6.6303362840082398
   151   1     0.98098043348717778      10.070422939647074       6.630336285332679
   152   1      2.4746586255198393      11.146156373211682      4.8622466679885044
   153   1      1.9705618648289658      8.6237257975935933      4.8622465926986855
   154   1      1.4865214215911933      12.519078567054834      6.6303363545299554
   155   1     0.47398377959760241      13.849168043870634      4.8622467232036692
   156   1      12.718990564442672      11.519397145707302      4.8622466598841916
   157   1  0.00085022979983886992       5.099182956292168      6.6303361579092668
   158   1      1.4754322745687338      6.1121768597352144      4.8622465254100389
   159   1     0.49061991496248386      7.5926055478554275      6.6303362169839621
   160   1      12.245200704170598      9.0821287177488443      4.8622466012925507
