(written by ASE)

288 atoms
1 atom types

0.0      22.645532498833678  xlo xhi
0.0                      30  ylo yhi
0.0      7.0723586277786685  zlo zhi

Atoms # atomic

     1   1      14.106253628253908      19.896309002366962     0.43753592314841172
     2   1      12.978289432141583      18.505961981622022      2.2056254854915833
     3   1      9.1767787258072175      18.989794234297108     0.43753571929232443
     4   1      10.547419503122955      17.831460757604106       2.205625269103439
     5   1      8.0898122527664356      17.599326483799928      2.2056252064733628
     6   1      11.606491457722107      19.398710517848002     0.43753583053516182
     7   1      11.344945524400783      21.969631166545184     0.43753611994528813
     8   1      12.714708589000603      20.953666737084887      2.2056257148200769
     9   1      10.258962708734126       20.46583861398301      2.2056255939856944
    10   1      13.834666033193963      22.371318236419739     0.43753618988468795
    11   1       13.56252574126102      24.871635524734984     0.43753641341006277
    12   1      12.449842282943091      23.450534841736811      2.2056259445254107
    13   1      4.1907485464741043      18.746201639892575     0.43753583401118168
    14   1      5.5894876812845133      17.535699360512979      2.2056252148480358
    15   1      3.0691262891987767      17.454667777098337      2.2056252659152462
    16   1      6.7003718568680855      18.844904528268046     0.43753575141517703
    17   1      6.4102613078941983      21.401551161067658     0.43753606368388642
    18   1      7.7982363208186101      20.196819068353847      2.2056255379621272
    19   1      5.3037623715957309      20.061410049420175      2.2056255761472032
    20   1      8.8891328189673597       21.60277356349539      0.4375360480049883
    21   1      8.6068815748395266      24.186094655018678     0.43753633062504504
    22   1      9.9799499667235434      23.055416307160357      2.2056258722534903
    23   1      7.5105040642361995      22.775556483060484      2.2056258512438114
    24   1      11.075789389278036      24.520960597770141      0.4375363652677946
    25   1      21.870185727435036      17.831460793366631     0.43753566673091593
    26   1      1.6555232594885472      18.505961812364575     0.43753588231751223
    27   1      1.3919423083545963      20.953666846243237     0.43753610779917707
    28   1      2.7834874200840103      19.896308928414584      2.2056256208787626
    29   1     0.28372513485325102       19.39871056917778      2.2056255364474131
    30   1       3.906144579166674      21.240676172824266      0.4375361169839086
    31   1      3.6280900366645157      23.747221741627413     0.43753636184038475
    32   1      5.0192997576554506      22.588498809282328      2.2056258790869459
    33   1      2.5118997698168424      22.371318257198226      2.2056258920006755
    34   1      6.1259679427484768      23.952753658222036     0.43753634013896703
    35   1      4.7387932255397311      25.118664771612799      2.2056261151576275
    36   1      16.912253953701672      17.535699412339682     0.43753554776887382
    37   1      19.412578513904446      17.599326496254065     0.43753556950398864
    38   1      19.121002570103304       20.19681910207575      0.4375359066152848
    39   1      20.499544998728684      18.989794257693319       2.205625414951752
    40   1      18.023138091788738      18.844904546508388      2.2056254085768909
    41   1      21.581728978486108      20.465838626266134     0.43753598091655338
    42   1      21.302716206804384      23.055416337956757      0.4375362607260832
    43   1    0.022179310895850273      21.969631169015173      2.2056258284341177
    44   1      20.211899054244352      21.602773589990136      2.2056257345716421
    45   1      1.1270760584518202      23.450534814197766     0.43753633993008317
    46   1      2.2397595070638032      24.871635523888244      2.2056261243167921
    47   1      22.398555628538038      24.520960621173288       2.205626067842978
    48   1      14.391892586589213      17.454667641994661     0.43753557271928928
    49   1      15.513514847912107      18.746201663206591      2.2056254560865902
    50   1      16.626528631838486      20.061410057150624     0.43753590723121705
    51   1      16.342065993664903      22.588498836871139     0.43753619231665358
    52   1      17.733027568461768       21.40155118501346      2.2056257213620292
    53   1      15.228910804168814      21.240676184586363      2.2056257372214634
    54   1      18.833270315428681      22.775556499185427      0.4375361966150304
    55   1      19.929647828141366      24.186094675904741      2.2056260082112398
    56   1      17.448734179423173      23.952753678940496       2.205625972675425
    57   1      14.950856282873501      23.747221746740877      2.2056259751743399
    58   1      16.061559468671479       25.11866478539406     0.43753642386621777
    59   1       22.22654544584481       14.99999996686833     0.43753520483848268
    60   1      20.786966768568597      16.321829443520954      2.2056250531475032
    61   1      21.581728131713007      9.5341613422737339     0.43753432964486405
    62   1      21.870185282462639      12.168539168976338     0.43753474170844348
    63   1      19.412578129164825      12.400673432344831     0.43753477568215549
    64   1      20.786966580038406      13.678170470788615      2.2056246315318724
    65   1       20.49954436348898      11.010205705621416      2.2056242244889481
    66   1      19.605452433147715      14.999999982211733     0.43753518493061117
    67   1      17.067514678538103      14.999999936619361     0.43753515040322605
    68   1      18.281706485563003      16.279821123201913      2.2056250528855394
    69   1      18.281706234214344      13.720178830999657      2.2056246338553169
    70   1      15.775610888113441      16.252012503992518      2.2056250900624441
    71   1      21.302714869755079      6.9445836936697845     0.43753393789764566
    72   1      18.833269040830515      7.2244434742713963     0.43753397662132049
    73   1      20.211898024153385      8.3972263880742162      2.2056238220340791
    74   1      19.929646264285068      5.8139053404250092      2.2056234308093097
    75   1      19.121001760305074      9.8031808844228863     0.43753437519528771
    76   1      16.626527895656007      9.9385898509871708     0.43753433367016831
    77   1      18.023137574610931      11.155095384970309      2.2056242337780358
    78   1      17.733026526716554      8.5984488052686174      2.2056238338867229
    79   1      16.912253547292984      12.464300618719193     0.43753472303157243
    80   1      14.391892204638804      12.545331932302162     0.43753460895077673
    81   1      15.775610848223861      13.747987398039299      2.2056246429028565
    82   1      15.513514194738569      11.253798365481913      2.2056241910689329
    83   1      14.547246904807295       15.00000020744028     0.43753507506727535
    84   1      11.854780584640903      16.762214248625924     0.43753546212845806
    85   1      13.285703011004919      16.154162040375581       2.205625226522034
    86   1      13.285702583529622      13.845837883026064      2.2056245700050225
    87   1      16.061557758551469      4.8813352146059685     0.43753358940895815
    88   1      17.448732694273289      6.0472463016317874      2.2056234400624835
    89   1      16.342064754382786      7.4115011872957837     0.43753395717560872
    90   1      13.834664851879088      7.6286816869859422     0.43753394563897241
    91   1      15.228909900177626      8.7593237521327012      2.2056237957422331
    92   1      14.950854810719266       6.252778281915738      2.2056234330996354
    93   1      14.106252948686851      10.103691205664177     0.43753427290005392
    94   1      11.606490771668938      10.601289405454509      0.4375343866068756
    95   1      12.978289039658145      11.494038187532652       2.205624150579454
    96   1      12.714707624706861      9.0463331948414236      2.2056238081277617
    97   1      11.854780402101378      13.237785657096879     0.43753473198050208
    98   1       9.464200309754272      13.678170480587056     0.43753495000679377
    99   1      10.903779193948704      14.999999968821044      2.2056248180953717
   100   1      10.547419028199872      12.168539191651945      2.2056243737013443
   101   1      9.4642005426805902      16.321829443998865     0.43753536155399464
   102   1      6.9589401888530285      16.279821109899956     0.43753538384650309
   103   1      8.2826861629193065      14.999999963037936      2.2056248164663734
   104   1      13.562524087381417      5.1283645385084355      0.4375336017330087
   105   1      11.075787791918335      5.4790394325628995     0.43753366230803975
   106   1      12.449840936093894      6.5494652170887946      2.2056234583743448
   107   1      11.344944456935659      8.0303688702184957     0.43753403013511827
   108   1      8.8891317754796049      8.3972264130847805     0.43753413868172969
   109   1      10.258961915923026      9.5341613868502009      2.2056239558009563
   110   1      9.9799486354238738      6.9445837111514379      2.2056235606812624
   111   1       9.176778141867187      11.010205726742242     0.43753454524045043
   112   1      6.7003712999012084      11.155095388308212     0.43753457205644614
   113   1      8.0898118659612042      12.400673449813155      2.2056244194997339
   114   1      7.7982355126951779      9.8031808910781706      2.2056240129936633
   115   1      6.9589399814744999      13.720178828263442     0.43753497256787266
   116   1      4.4528445054844514      13.747987390655709     0.43753500223015146
   117   1      5.7447483956728602       14.99999993933352      2.2056248028080403
   118   1      5.5894872845533037       12.46430057907412      2.2056243843097385
   119   1      4.4528446902550325      16.252012497224541     0.43753545546237937
   120   1      1.9629366472255774      16.154162132593257     0.43753562409707908
   121   1      3.2244806331547942       14.99999999236843      2.2056247465518526
   122   1      8.6068800356439485      5.8139053782562371     0.43753374116833321
   123   1      6.1259664532171589      6.0472463369493141      0.4375337679208664
   124   1      7.5105028108250638      7.2244435001302065       2.205623612858941
   125   1       6.410260296324525       8.598448823164091     0.43753416215981578
   126   1      3.9061436448262521      8.7593237439162692     0.43753415032220339
   127   1      5.3037616478750031      9.9385898652243441      2.2056239842120937
   128   1      5.0192985072430547      7.4115011944443268      2.2056236144040859
   129   1      4.1907479762452153      11.253798346707981      0.4375345470750619
   130   1      1.6555227119367841      11.494037988076769     0.43753451925680154
   131   1      3.0691259863975868      12.545332043284333      2.2056242814214917
   132   1      2.7834866610883959       10.10369112124269      2.2056239448533121
   133   1      1.9629364094146071      13.845837963576798     0.43753494492472395
   134   1     0.53201437998977852      16.762214264505133      2.2056251635426447
   135   1      0.5320140820306285      13.237785595165661      2.2056244062758146
   136   1      4.7387915203460702      4.8813352395471838      2.2056232338971786
   137   1      3.6280885647622143      6.2527782964042729     0.43753377823829104
   138   1      1.1270746574003214      6.5494651638549897      0.4375338297191409
   139   1      2.5118986092226057      7.6286816824248262      2.2056236203631103
   140   1      2.2397578218688858      5.1283645316171373       2.205623266717498
   141   1      1.3919413971805323      9.0463332629493038     0.43753417143742845
   142   1     0.28372457026733466      10.601289388415836      2.2056240663537592
   143   1    0.022178168571058334      8.0303688213909652      2.2056237157989034
   144   1      22.398554033917094      5.4790394085694913      2.2056233489133716
   145   1      14.106253628253908      19.896309002366962      3.9737152370377458
   146   1      12.978289432141583      18.505961981622022      5.7418047993809163
   147   1      9.1767787258072175      18.989794234297108      3.9737150331816582
   148   1      10.547419503122955      17.831460757604106      5.7418045829927733
   149   1      8.0898122527664356      17.599326483799928      5.7418045203626971
   150   1      11.606491457722107      19.398710517848002      3.9737151444244954
   151   1      11.344945524400783      21.969631166545184      3.9737154338346214
   152   1      12.714708589000603      20.953666737084887      5.7418050287094093
   153   1      10.258962708734126       20.46583861398301      5.7418049078750268
   154   1      13.834666033193963      22.371318236419739      3.9737155037740211
   155   1       13.56252574126102      24.871635524734984      3.9737157272993953
   156   1      12.449842282943091      23.450534841736811      5.7418052584147432
   157   1      4.1907485464741043      18.746201639892575      3.9737151479005144
   158   1      5.5894876812845133      17.535699360512979      5.7418045287373696
   159   1      3.0691262891987767      17.454667777098337      5.7418045798045796
   160   1      6.7003718568680855      18.844904528268046      3.9737150653045106
   161   1      6.4102613078941983      21.401551161067658       3.973715377573221
   162   1      7.7982363208186101      20.196819068353847      5.7418048518514615
   163   1      5.3037623715957309      20.061410049420175      5.7418048900365362
   164   1      8.8891328189673597       21.60277356349539      3.9737153618943224
   165   1      8.6068815748395266      24.186094655018678      3.9737156445143782
   166   1      9.9799499667235434      23.055416307160357      5.7418051861428241
   167   1      7.5105040642361995      22.775556483060484      5.7418051651331456
   168   1      11.075789389278036      24.520960597770141      3.9737156791571282
   169   1      21.870185727435036      17.831460793366631      3.9737149806202492
   170   1      1.6555232594885472      18.505961812364575      3.9737151962068467
   171   1      1.3919423083545963      20.953666846243237      3.9737154216885102
   172   1      2.7834874200840103      19.896308928414584      5.7418049347680968
   173   1     0.28372513485325102       19.39871056917778       5.741804850336746
   174   1       3.906144579166674      21.240676172824266      3.9737154308732427
   175   1      3.6280900366645157      23.747221741627413      3.9737156757297192
   176   1      5.0192997576554506      22.588498809282328      5.7418051929762797
   177   1      2.5118997698168424      22.371318257198226      5.7418052058900075
   178   1      6.1259679427484768      23.952753658222036      3.9737156540283007
   179   1      4.7387932255397311      25.118664771612799      5.7418054290469609
   180   1      16.912253953701672      17.535699412339682      3.9737148616582081
   181   1      19.412578513904446      17.599326496254065      3.9737148833933222
   182   1      19.121002570103304       20.19681910207575      3.9737152205046189
   183   1      20.499544998728684      18.989794257693319      5.7418047288410854
   184   1      18.023138091788738      18.844904546508388      5.7418047224662248
   185   1      21.581728978486108      20.465838626266134      3.9737152948058863
   186   1      21.302716206804384      23.055416337956757      3.9737155746154169
   187   1    0.022179310895850273      21.969631169015173       5.741805142323452
   188   1      20.211899054244352      21.602773589990136      5.7418050484609751
   189   1      1.1270760584518202      23.450534814197766      3.9737156538194167
   190   1      2.2397595070638032      24.871635523888244       5.741805438206125
   191   1      22.398555628538038      24.520960621173288      5.7418053817323118
   192   1      14.391892586589213      17.454667641994661      3.9737148866086218
   193   1      15.513514847912107      18.746201663206591      5.7418047699759223
   194   1      16.626528631838486      20.061410057150624      3.9737152211205502
   195   1      16.342065993664903      22.588498836871139      3.9737155062059868
   196   1      17.733027568461768       21.40155118501346       5.741805035251363
   197   1      15.228910804168814      21.240676184586363      5.7418050511107968
   198   1      18.833270315428681      22.775556499185427      3.9737155105043631
   199   1      19.929647828141366      24.186094675904741      5.7418053221005723
   200   1      17.448734179423173      23.952753678940496      5.7418052865647597
   201   1      14.950856282873501      23.747221746740877      5.7418052890636737
   202   1      16.061559468671479       25.11866478539406      3.9737157377555512
   203   1       22.22654544584481       14.99999996686833      3.9737145187278164
   204   1      20.786966768568597      16.321829443520954      5.7418043670368366
   205   1      21.581728131713007      9.5341613422737339      3.9737136435341975
   206   1      21.870185282462639      12.168539168976338      3.9737140555977772
   207   1      19.412578129164825      12.400673432344831      3.9737140895714895
   208   1      20.786966580038406      13.678170470788615      5.7418039454212062
   209   1       20.49954436348898      11.010205705621416      5.7418035383782815
   210   1      19.605452433147715      14.999999982211733      3.9737144988199447
   211   1      17.067514678538103      14.999999936619361      3.9737144642925606
   212   1      18.281706485563003      16.279821123201913      5.7418043667748746
   213   1      18.281706234214344      13.720178830999657      5.7418039477446507
   214   1      15.775610888113441      16.252012503992518      5.7418044039517762
   215   1      21.302714869755079      6.9445836936697845      3.9737132517869789
   216   1      18.833269040830515      7.2244434742713963      3.9737132905106543
   217   1      20.211898024153385      8.3972263880742162      5.7418031359234121
   218   1      19.929646264285068      5.8139053404250092      5.7418027446986439
   219   1      19.121001760305074      9.8031808844228863      3.9737136890846223
   220   1      16.626527895656007      9.9385898509871708      3.9737136475595021
   221   1      18.023137574610931      11.155095384970309      5.7418035476673692
   222   1      17.733026526716554      8.5984488052686174      5.7418031477760563
   223   1      16.912253547292984      12.464300618719193      3.9737140369209056
   224   1      14.391892204638804      12.545331932302162      3.9737139228401097
   225   1      15.775610848223861      13.747987398039299      5.7418039567921912
   226   1      15.513514194738569      11.253798365481913      5.7418035049582672
   227   1      14.547246904807295       15.00000020744028      3.9737143889566098
   228   1      11.854780584640903      16.762214248625924       3.973714776017792
   229   1      13.285703011004919      16.154162040375581      5.7418045404113673
   230   1      13.285702583529622      13.845837883026064      5.7418038838943559
   231   1      16.061557758551469      4.8813352146059685      3.9737129032982925
   232   1      17.448732694273289      6.0472463016317874      5.7418027539518164
   233   1      16.342064754382786      7.4115011872957837      3.9737132710649425
   234   1      13.834664851879088      7.6286816869859422      3.9737132595283056
   235   1      15.228909900177626      8.7593237521327012       5.741803109631566
   236   1      14.950854810719266       6.252778281915738      5.7418027469889692
   237   1      14.106252948686851      10.103691205664177      3.9737135867893878
   238   1      11.606490771668938      10.601289405454509      3.9737137004962095
   239   1      12.978289039658145      11.494038187532652      5.7418034644687888
   240   1      12.714707624706861      9.0463331948414236      5.7418031220170969
   241   1      11.854780402101378      13.237785657096879      3.9737140458698361
   242   1       9.464200309754272      13.678170480587056      3.9737142638961283
   243   1      10.903779193948704      14.999999968821044      5.7418041319847042
   244   1      10.547419028199872      12.168539191651945      5.7418036875906777
   245   1      9.4642005426805902      16.321829443998865      3.9737146754433286
   246   1      6.9589401888530285      16.279821109899956      3.9737146977358369
   247   1      8.2826861629193065      14.999999963037936      5.7418041303557077
   248   1      13.562524087381417      5.1283645385084355      3.9737129156223414
   249   1      11.075787791918335      5.4790394325628995      3.9737129761973731
   250   1      12.449840936093894      6.5494652170887946      5.7418027722636795
   251   1      11.344944456935659      8.0303688702184957      3.9737133440244525
   252   1      8.8891317754796049      8.3972264130847805      3.9737134525710629
   253   1      10.258961915923026      9.5341613868502009      5.7418032696902905
   254   1      9.9799486354238738      6.9445837111514379      5.7418028745705962
   255   1       9.176778141867187      11.010205726742242      3.9737138591297838
   256   1      6.7003712999012084      11.155095388308212       3.973713885945779
   257   1      8.0898118659612042      12.400673449813155      5.7418037333890686
   258   1      7.7982355126951779      9.8031808910781706       5.741803326882998
   259   1      6.9589399814744999      13.720178828263442       3.973714286457207
   260   1      4.4528445054844514      13.747987390655709      3.9737143161194841
   261   1      5.7447483956728602       14.99999993933352      5.7418041166973746
   262   1      5.5894872845533037       12.46430057907412       5.741803698199071
   263   1      4.4528446902550325      16.252012497224541      3.9737147693517128
   264   1      1.9629366472255774      16.154162132593257      3.9737149379864132
   265   1      3.2244806331547942       14.99999999236843      5.7418040604411855
   266   1      8.6068800356439485      5.8139053782562371      3.9737130550576674
   267   1      6.1259664532171589      6.0472463369493141      3.9737130818101991
   268   1      7.5105028108250638      7.2244435001302065      5.7418029267482744
   269   1       6.410260296324525       8.598448823164091      3.9737134760491504
   270   1      3.9061436448262521      8.7593237439162692      3.9737134642115368
   271   1      5.3037616478750031      9.9385898652243441      5.7418032981014271
   272   1      5.0192985072430547      7.4115011944443268      5.7418029282934206
   273   1      4.1907479762452153      11.253798346707981      3.9737138609643945
   274   1      1.6555227119367841      11.494037988076769      3.9737138331461348
   275   1      3.0691259863975868      12.545332043284333      5.7418035953108246
   276   1      2.7834866610883959       10.10369112124269       5.741803258742646
   277   1      1.9629364094146071      13.845837963576798      3.9737142588140584
   278   1     0.53201437998977852      16.762214264505133      5.7418044774319776
   279   1      0.5320140820306285      13.237785595165661       5.741803720165148
   280   1      4.7387915203460702      4.8813352395471838      5.7418025477865111
   281   1      3.6280885647622143      6.2527782964042729      3.9737130921276238
   282   1      1.1270746574003214      6.5494651638549897      3.9737131436084745
   283   1      2.5118986092226057      7.6286816824248262      5.7418029342524433
   284   1      2.2397578218688858      5.1283645316171373      5.7418025806068318
   285   1      1.3919413971805323      9.0463332629493038      3.9737134853267624
   286   1     0.28372457026733466      10.601289388415836      5.7418033802430939
   287   1    0.022178168571058334      8.0303688213909652      5.7418030296882367
   288   1      22.398554033917094      5.4790394085694913      5.7418026628027059
