(written by ASE)

240 atoms
1 atom types

0.0      19.039428735234662  xlo xhi
0.0                      30  ylo yhi
0.0      7.0723586277786685  zlo zhi

Atoms # atomic

     1   1      6.1609287485022968      17.155052784575844      1.3260672457201559
     2   1      5.3394049192046706      14.999999999998295      3.0941569026647708
     3   1      6.8848790466932286      18.693451444785666       3.094156902664821
     4   1      1.6924138224963583      15.000000000000057      1.3260672457201066
     5   1      3.9362746482044151      16.166492900014248      1.3260672457201561
     6   1      2.8782321290851436      18.370516406902283      1.3260672457201546
     7   1      4.5534032304796339      17.729018340128135      3.0941569026648281
     8   1       2.265080867791065      16.587581016610301      3.0941569026648073
     9   1      5.1869754166613875        19.4120024388844      1.3260672457201477
    10   1      4.2147524936057259      21.723415645057116      1.3260672457201255
    11   1       5.873091709671951      21.031039536020756      3.0941569026647993
    12   1      3.5483469948651436      20.047036849538415      3.0941569026648068
    13   1       6.535795784442139      22.680828191882199      1.3260672457201028
    14   1      5.5457784065360114      25.039364354289091      1.3260672457200506
    15   1      4.8852043951401809      23.376190958522358      3.0941569026647584
    16   1       17.41677729471278       16.31247001926863      1.3260672457201208
    17   1      18.994372791844182      15.000000000000512      3.0941569026647739
    18   1      16.531169189896893      15.000000000000455      3.0941569026647655
    19   1     0.62735677210176999      17.211287598428811      1.3260672457201437
    20   1      18.698720108239428      19.616601211526586      1.3260672457201375
    21   1       1.272863677075476      18.957922183475091      3.0941569026648152
    22   1      18.062013649153105      17.898591742262965      3.0941569026648033
    23   1      1.9177660771431113      20.693162576679669      1.3260672457201257
    24   1     0.94004399297397878      23.034263108977683      1.3260672457200866
    25   1      2.5752350411445573      22.382275881182721      3.0941569026647762
    26   1     0.29434391743452976      21.329240825222513      3.0941569026647828
    27   1      3.2366560451413044      24.056590151340231      1.3260672457200808
    28   1       1.595372339820518      24.721026512727661      3.0941569026647349
    29   1      14.859119286822411      15.000000000000227      1.3260672457200984
    30   1      14.073117598096889      17.729018340128533      1.3260672457201315
    31   1      15.680643116119494      17.155052784576839       3.094156902664797
    32   1      13.455989015822045      16.166492900015442      3.0941569026647922
    33   1      16.404593414310483       18.69345144478612      1.3260672457201255
    34   1      15.392806077289114      21.031039536021012       1.326067245720101
    35   1      17.055061264500051      20.311409060127403      3.0941569026647828
    36   1      14.706689784278895      19.412002438884684      3.0941569026647828
    37   1      17.700017294293751      21.992703045187369       1.326067245720099
    38   1      16.708954340934852      24.357562774134834      1.3260672457200584
    39   1      18.346368341741229      23.688155706275211      3.0941569026647389
    40   1      16.055510152059426      22.680828191882483      3.0941569026647451
    41   1      9.4746584242265843       14.99999999999838      1.3260672457201084
    42   1      11.212128190113846      15.000000000000171      3.0941569026647642
    43   1      11.784795235407856       16.58758101661067      1.3260672457201226
    44   1      10.792578044692311      18.957922183475091      1.3260672457201217
    45   1      12.397946496702227      18.370516406902823      3.0941569026647877
    46   1      10.147071139718793      17.211287598428413      3.0941569026647984
    47   1      13.068061362481952      20.047036849538387      1.3260672457201104
    48   1      12.094949408761622      22.382275881182551      1.3260672457200742
    49   1      13.734466861222746      21.723415645057514      3.0941569026647464
    50   1        11.4374804447603       20.69316257667964      3.0941569026647668
    51   1      14.404918762757273      23.376190958522272      1.3260672457200562
    52   1      15.065492774153512       25.03936435428912      3.0941569026647087
    53   1      12.756370412758578       24.05659015133989        3.09415690266471
    54   1      7.0114548222788642      14.999999999999261      1.3260672457201068
    55   1      7.8970629270955417      16.312470019267835      3.0941569026647966
    56   1      8.5422992815355219      17.898591742262226      1.3260672457201312
    57   1      7.5353468968826975      20.311409060126977      1.3260672457201355
    58   1      9.1790057406220242      19.616601211526302      3.0941569026647833
    59   1      9.8140582850515568      21.329240825221888      1.3260672457201022
    60   1      8.8266539741238521      23.688155706274813      1.3260672457200668
    61   1      10.459758360591268      23.034263108977569      3.0941569026647344
    62   1      8.1803029266764913      21.992703045186829      3.0941569026647677
    63   1      11.115086707437717      24.721026512727377      1.3260672457200313
    64   1      7.1892399733173216      24.357562774134379      3.0941569026647313
    65   1      18.062013649151989      12.101408257737233      3.0941569026646896
    66   1      18.698720108238202      10.383398788473528      1.3260672457199596
    67   1      17.416777294712439      13.687529980731654       1.326067245720068
    68   1       18.34636834174027      6.3118442937245334      3.0941569026645386
    69   1      16.055510152058947       7.319171808116721      3.0941569026645763
    70   1      17.700017294292802      8.0072969548125172      1.3260672457199099
    71   1      16.708954340933669      5.6424372258654358      1.3260672457198706
    72   1      17.055061264499415      9.6885909398729666      3.0941569026646194
    73   1      14.706689784278163      10.587997561115571      3.0941569026646527
    74   1      16.404593414309836      11.306548555214761      1.3260672457199973
    75   1      15.392806077288354      8.9689604639793004      1.3260672457199498
    76   1      15.680643116118919      12.844947215424469      3.0941569026646811
    77   1      13.455989015821084      13.833507099984928      3.0941569026647215
    78   1      14.073117598096605      12.270981659872035      1.3260672457200251
    79   1       15.06549277415265      4.9606356457108518       3.094156902664547
    80   1      12.756370412758313      5.9434098486600107      3.0941569026645763
    81   1       14.40491876275671      6.6238090414781823      1.3260672457199052
    82   1      13.734466861222051      8.2765843549423437      3.0941569026646119
    83   1      11.437480444759879      9.3068374233201894      3.0941569026646278
    84   1      13.068061362481563      9.9529631504620397      1.3260672457199723
    85   1      12.094949408761332      7.6177241188180744      1.3260672457199258
    86   1      12.397946496701843      11.629483593097717       3.094156902664678
    87   1      10.147071139718236      12.788712401571388      3.0941569026647016
    88   1      11.784795235407602      13.412418983389699       1.326067245720058
    89   1      10.792578044692133      11.042077816525222      1.3260672457200009
    90   1      11.115086707436904      5.2789734872727365      1.3260672457199036
    91   1      10.459758360590376      6.9657368910227149      3.0941569026645821
    92   1      8.1803029266758109      8.0072969548136541      3.0941569026645874
    93   1       9.814058285051253      8.6707591747779702      1.3260672457199465
    94   1       8.826653974122852      6.3118442937254429      1.3260672457199032
    95   1       9.179005740621573      10.383398788474153      3.0941569026646505
    96   1      6.8848790466924186       11.30654855521351      3.0941569026646443
    97   1      8.5422992815346852       12.10140825773729      1.3260672457200218
    98   1      7.5353468968820057      9.6885909398727392      1.3260672457199534
    99   1      7.8970629270945762      13.687529980730716      3.0941569026647389
   100   1      6.1609287485009068      12.844947215423701      1.3260672457199947
   101   1      7.1892399733164813      5.6424372258661322      3.0941569026645492
   102   1      4.8852043951390138      6.6238090414778981       3.094156902664535
   103   1      6.5357957844413157      7.3191718081178578      1.3260672457198932
   104   1      5.5457784065353568      4.9606356457109939      1.3260672457198717
   105   1       5.873091709670641      8.9689604639797551      3.0941569026645825
   106   1      3.5483469948636688      9.9529631504610165      3.0941569026645999
   107   1      5.1869754166601325      10.587997561115372      1.3260672457199498
   108   1      4.2147524936042746      8.2765843549423153      1.3260672457198912
   109   1      4.5534032304782111      12.270981659870898       3.094156902664662
   110   1      2.2650808677897887      13.412418983388847       3.094156902664714
   111   1      3.9362746482034399      13.833507099984161      1.3260672457200249
   112   1      2.8782321290841208      11.629483593097092      1.3260672457199769
   113   1      1.5953723398197219      5.2789734872719691      3.0941569026645181
   114   1      3.2366560451405473      5.9434098486593285      1.3260672457198621
   115   1      2.5752350411434803      7.6177241188170512      3.0941569026645501
   116   1     0.29434391743376581      8.6707591747770039       3.094156902664575
   117   1      1.9177660771417275      9.3068374233197915      1.3260672457199176
   118   1     0.94004399297302188      6.9657368910218906      1.3260672457198706
   119   1      1.2728636770741042      11.042077816524369      3.0941569026646283
   120   1     0.62735677210039642      12.788712401570962      1.3260672457200093
   121   1      6.1609287485022968      17.155052784575844      4.8622465596094893
   122   1      5.3394049192046706      14.999999999998295      6.6303362165541051
   123   1      6.8848790466932286      18.693451444785666      6.6303362165541557
   124   1      1.6924138224963583      15.000000000000057      4.8622465596094404
   125   1      3.9362746482044151      16.166492900014248      4.8622465596094893
   126   1      2.8782321290851436      18.370516406902283      4.8622465596094875
   127   1      4.5534032304796339      17.729018340128135      6.6303362165541628
   128   1       2.265080867791065      16.587581016610301      6.6303362165541424
   129   1      5.1869754166613875        19.4120024388844      4.8622465596094813
   130   1      4.2147524936057259      21.723415645057116      4.8622465596094591
   131   1       5.873091709671951      21.031039536020756      6.6303362165541335
   132   1      3.5483469948651436      20.047036849538415      6.6303362165541397
   133   1       6.535795784442139      22.680828191882199       4.862246559609436
   134   1      5.5457784065360114      25.039364354289091      4.8622465596093853
   135   1      4.8852043951401809      23.376190958522358      6.6303362165540936
   136   1       17.41677729471278       16.31247001926863      4.8622465596094528
   137   1      18.994372791844182      15.000000000000512      6.6303362165541069
   138   1      16.531169189896893      15.000000000000455      6.6303362165540989
   139   1     0.62735677210176999      17.211287598428811      4.8622465596094768
   140   1      18.698720108239428      19.616601211526586      4.8622465596094706
   141   1       1.272863677075476      18.957922183475091      6.6303362165541486
   142   1      18.062013649153105      17.898591742262965      6.6303362165541362
   143   1      1.9177660771431113      20.693162576679669        4.86224655960946
   144   1     0.94004399297397878      23.034263108977683      4.8622465596094191
   145   1      2.5752350411445573      22.382275881182721      6.6303362165541113
   146   1     0.29434391743452976      21.329240825222513      6.6303362165541175
   147   1      3.2366560451413044      24.056590151340231      4.8622465596094147
   148   1       1.595372339820518      24.721026512727661      6.6303362165540696
   149   1      14.859119286822411      15.000000000000227      4.8622465596094324
   150   1      14.073117598096889      17.729018340128533      4.8622465596094653
   151   1      15.680643116119494      17.155052784576839      6.6303362165541309
   152   1      13.455989015822045      16.166492900015442      6.6303362165541264
   153   1      16.404593414310483       18.69345144478612      4.8622465596094591
   154   1      15.392806077289114      21.031039536021012      4.8622465596094342
   155   1      17.055061264500051      20.311409060127403      6.6303362165541184
   156   1      14.706689784278895      19.412002438884684      6.6303362165541175
   157   1      17.700017294293751      21.992703045187369      4.8622465596094324
   158   1      16.708954340934852      24.357562774134834      4.8622465596093933
   159   1      18.346368341741229      23.688155706275211      6.6303362165540731
   160   1      16.055510152059426      22.680828191882483      6.6303362165540793
   161   1      9.4746584242265843       14.99999999999838      4.8622465596094422
   162   1      11.212128190113846      15.000000000000171       6.630336216554098
   163   1      11.784795235407856       16.58758101661067      4.8622465596094564
   164   1      10.792578044692311      18.957922183475091      4.8622465596094546
   165   1      12.397946496702227      18.370516406902823       6.630336216554122
   166   1      10.147071139718793      17.211287598428413      6.6303362165541309
   167   1      13.068061362481952      20.047036849538387       4.862246559609444
   168   1      12.094949408761622      22.382275881182551      4.8622465596094084
   169   1      13.734466861222746      21.723415645057514      6.6303362165540802
   170   1        11.4374804447603       20.69316257667964      6.6303362165541015
   171   1      14.404918762757273      23.376190958522272      4.8622465596093898
   172   1      15.065492774153512       25.03936435428912       6.630336216554042
   173   1      12.756370412758578       24.05659015133989      6.6303362165540438
   174   1      7.0114548222788642      14.999999999999261      4.8622465596094404
   175   1      7.8970629270955417      16.312470019267835        6.63033621655413
   176   1      8.5422992815355219      17.898591742262226      4.8622465596094653
   177   1      7.5353468968826975      20.311409060126977      4.8622465596094688
   178   1      9.1790057406220242      19.616601211526302      6.6303362165541184
   179   1      9.8140582850515568      21.329240825221888       4.862246559609436
   180   1      8.8266539741238521      23.688155706274813      4.8622465596094022
   181   1      10.459758360591268      23.034263108977569      6.6303362165540696
   182   1      8.1803029266764913      21.992703045186829      6.6303362165541024
   183   1      11.115086707437717      24.721026512727377       4.862246559609364
   184   1      7.1892399733173216      24.357562774134379      6.6303362165540651
   185   1      18.062013649151989      12.101408257737233      6.6303362165540225
   186   1      18.698720108238202      10.383398788473528      4.8622465596092939
   187   1      17.416777294712439      13.687529980731654      4.8622465596094022
   188   1       18.34636834174027      6.3118442937245334      6.6303362165538733
   189   1      16.055510152058947       7.319171808116721      6.6303362165539106
   190   1      17.700017294292802      8.0072969548125172      4.8622465596092432
   191   1      16.708954340933669      5.6424372258654358      4.8622465596092042
   192   1      17.055061264499415      9.6885909398729666      6.6303362165539523
   193   1      14.706689784278163      10.587997561115571      6.6303362165539879
   194   1      16.404593414309836      11.306548555214761      4.8622465596093312
   195   1      15.392806077288354      8.9689604639793004      4.8622465596092832
   196   1      15.680643116118919      12.844947215424469      6.6303362165540145
   197   1      13.455989015821084      13.833507099984928      6.6303362165540545
   198   1      14.073117598096605      12.270981659872035      4.8622465596093596
   199   1       15.06549277415265      4.9606356457108518      6.6303362165538813
   200   1      12.756370412758313      5.9434098486600107      6.6303362165539106
   201   1       14.40491876275671      6.6238090414781823      4.8622465596092388
   202   1      13.734466861222051      8.2765843549423437      6.6303362165539461
   203   1      11.437480444759879      9.3068374233201894      6.6303362165539603
   204   1      13.068061362481563      9.9529631504620397      4.8622465596093054
   205   1      12.094949408761332      7.6177241188180744      4.8622465596092592
   206   1      12.397946496701843      11.629483593097717      6.6303362165540118
   207   1      10.147071139718236      12.788712401571388      6.6303362165540358
   208   1      11.784795235407602      13.412418983389699      4.8622465596093924
   209   1      10.792578044692133      11.042077816525222      4.8622465596093356
   210   1      11.115086707436904      5.2789734872727365      4.8622465596092379
   211   1      10.459758360590376      6.9657368910227149      6.6303362165539159
   212   1      8.1803029266758109      8.0072969548136541      6.6303362165539212
   213   1       9.814058285051253      8.6707591747779702      4.8622465596092805
   214   1       8.826653974122852      6.3118442937254429      4.8622465596092379
   215   1       9.179005740621573      10.383398788474153      6.6303362165539834
   216   1      6.8848790466924186       11.30654855521351      6.6303362165539781
   217   1      8.5422992815346852       12.10140825773729       4.862246559609356
   218   1      7.5353468968820057      9.6885909398727392      4.8622465596092876
   219   1      7.8970629270945762      13.687529980730716      6.6303362165540731
   220   1      6.1609287485009068      12.844947215423701      4.8622465596093285
   221   1      7.1892399733164813      5.6424372258661322      6.6303362165538822
   222   1      4.8852043951390138      6.6238090414778981      6.6303362165538688
   223   1      6.5357957844413157      7.3191718081178578      4.8622465596092272
   224   1      5.5457784065353568      4.9606356457109939       4.862246559609205
   225   1       5.873091709670641      8.9689604639797551      6.6303362165539159
   226   1      3.5483469948636688      9.9529631504610165      6.6303362165539328
   227   1      5.1869754166601325      10.587997561115372      4.8622465596092832
   228   1      4.2147524936042746      8.2765843549423153      4.8622465596092246
   229   1      4.5534032304782111      12.270981659870898      6.6303362165539967
   230   1      2.2650808677897887      13.412418983388847      6.6303362165540465
   231   1      3.9362746482034399      13.833507099984161      4.8622465596093596
   232   1      2.8782321290841208      11.629483593097092      4.8622465596093116
   233   1      1.5953723398197219      5.2789734872719691      6.6303362165538511
   234   1      3.2366560451405473      5.9434098486593285      4.8622465596091962
   235   1      2.5752350411434803      7.6177241188170512      6.6303362165538831
   236   1     0.29434391743376581      8.6707591747770039      6.6303362165539088
   237   1      1.9177660771417275      9.3068374233197915      4.8622465596092512
   238   1     0.94004399297302188      6.9657368910218906      4.8622465596092042
   239   1      1.2728636770741042      11.042077816524369      6.6303362165539603
   240   1     0.62735677210039642      12.788712401570962      4.8622465596093436
