(written by ASE)

144 atoms
1 atom types

0.0      11.177922746446793  xlo xhi
0.0                      30  ylo yhi
0.0      7.0723586277786685  zlo zhi

Atoms # atomic

     1   1      1.6817909273616121      18.868191585486343      2.2201589179992154
     2   1      1.1123920178844295      17.140111107411073     0.45206887623374564
     3   1      2.2333927912290839      20.595531005472736     0.45206873181147061
     4   1      8.3810204526597278      16.564446845077057       2.220159941166969
     5   1      10.646181311490684      17.730965389820298      2.2201594670227678
     6   1      9.5063661555586503      20.015565271696403      2.2201592483573247
     7   1   0.0040642086731783982      19.437881945835457     0.45206843530104596
     8   1      8.9245339251838427      18.327902804423175     0.45206821561849314
     9   1     0.56082119314538748      21.157001309988061      2.2201589400867614
    10   1      10.620861055493803      23.444824102864089      2.2201586888975133
    11   1      1.1183184632322929      22.876091399851134     0.45206879590977384
    12   1      10.063005351607638      21.728426523704599     0.45206858632234792
    13   1      1.6783822512855497      24.589255353272733      2.2201585051757755
    14   1   0.0013247823119257574      25.160877760224025     0.45206890898343655
    15   1      5.0572198697657234      17.730965506982898      2.2201589883196609
    16   1      6.7013536207873923      17.140111001958374     0.45206853799728525
    17   1      7.2707523135841923       18.86819141826858      2.2201592663605707
    18   1      6.1497826276149175      21.157001586014616      2.2201589240392066
    19   1      7.8223542980716099      20.595531251307278     0.45206848827409912
    20   1      5.5930254373695423       19.43788181802293     0.45206859759796958
    21   1      8.3856873983056381      22.303297354810496       2.220158871105514
    22   1      7.2673436700641014      24.589255651991408      2.2201585458178146
    23   1      8.9444565571943802      24.016481606566316     0.45206881834432877
    24   1       6.707279691147038      22.876091105526058     0.45206877018937297
    25   1       2.792059179614776      16.564446856344517      2.2201583685577355
    26   1      3.3355726679084015       18.32790294122718     0.45206890261495075
    27   1      3.9174047629099626      20.015565021230145       2.220158856816929
    28   1      2.7967260815487327      22.303297676878088       2.220158702160854
    29   1      4.4740441314861803      21.728426782002686     0.45206877731782213
    30   1      5.0318996123585924      23.444823785312991       2.220158606781208
    31   1      5.5902862983320043      25.160878000619675     0.45206894014983329
    32   1      3.3554950251428317      24.016481328529579     0.45206891704455904
    33   1      10.079524391425117      13.839953686311404     0.45206891364624607
    34   1      10.646192724420905      12.269034580943384      2.2201589803921058
    35   1      10.079513096842007      16.160049945306056     0.45206844544660796
    36   1      8.9444776733220586      5.9835194843453507     0.45206884972897304
    37   1      10.620881154413068      6.5551771699672656       2.220159077868864
    38   1      10.063025133068749      8.2715744223063723     0.45206894545420173
    39   1      7.8223712831499217      9.4044687085062861     0.45206900374661096
    40   1      9.5063803406780867      9.9844326300135293      2.2201590358839347
    41   1      8.3857065661798504       7.696702219841697      2.2201590740710251
    42   1      8.9245475967004229      11.672097310407636     0.45206887836238657
    43   1      6.7013668800832304       12.85989473434573     0.45206904337088227
    44   1      8.3810359982578486      13.435561519405638      2.2201596390189153
    45   1      7.2707662134430757      11.131812431967077      2.2201589660120096
    46   1      7.8251198271553415      15.000004941789484     0.45206805102162384
    47   1      6.0294723480858963      15.000005823028843      2.2201589153491423
    48   1      5.5903103705498083      4.8391219993803247     0.45206889633781494
    49   1      7.2673651430425634      5.4107448646061158      2.2201590546040566
    50   1      6.7072986692502639      7.1239104009501659     0.45206893824689592
    51   1      4.4740640716545945      8.2715744419632102     0.45206913246637581
    52   1      6.1498009125685282      8.8430010357233044      2.2201589034544242
    53   1      5.0319201054382168       6.555177411135773      2.2201589899519782
    54   1      5.5930410238878379      10.562120106570774     0.45206930188485756
    55   1      3.3355863483218391      11.672097375433708     0.45206957093302808
    56   1      5.0572313315263662      12.269034578632912      2.2201585118496725
    57   1      3.9174191435397923      9.9844327222834721      2.2201586461338749
    58   1      4.4905629627828993      13.839953593684371     0.45206948931823582
    59   1      2.2361584654597917      15.000004586805673       0.452069720481384
    60   1      4.4905516521728357      16.160049951266998     0.45206900924104559
    61   1      2.7920745763951467      13.435561615778823      2.2201580698792847
    62   1      3.3555159029857027       5.983519523391962     0.45206894339900128
    63   1      1.1183376656260566      7.1239104118327532     0.45206896998559959
    64   1      2.7967449256980319      7.6967020503585815      2.2201589055699538
    65   1      1.6784040902509729      5.4107451408858651      2.2201590160149971
    66   1      2.2334096601631375      9.4044686609344836     0.45206925033345702
    67   1   0.0040797886741253979      10.562120064171097      0.4520691355949486
    68   1      1.6818047134825813      11.131812312279337      2.2201586207238022
    69   1     0.56083977885578307       8.843001183858533      2.2201589239633259
    70   1      1.1124055845554843      12.859894856021072     0.45206937937820646
    71   1     0.44051095814651625      15.000005822744455      2.2201587370434233
    72   1   0.0013485713477000309      4.8391220552825871     0.45206887030728771
    73   1      1.6817909273616121      18.868191585486343      5.7563382318885497
    74   1      1.1123920178844295      17.140111107411073      3.9882481901230795
    75   1      2.2333927912290839      20.595531005472736      3.9882480457008049
    76   1      8.3810204526597278      16.564446845077057      5.7563392550563037
    77   1      10.646181311490684      17.730965389820298      5.7563387809121007
    78   1      9.5063661555586503      20.015565271696403      5.7563385622466585
    79   1   0.0040642086731783982      19.437881945835457      3.9882477491903794
    80   1      8.9245339251838427      18.327902804423175      3.9882475295078268
    81   1     0.56082119314538748      21.157001309988061      5.7563382539760948
    82   1      10.620861055493803      23.444824102864089      5.7563380027868458
    83   1      1.1183184632322929      22.876091399851134       3.988248109799108
    84   1      10.063005351607638      21.728426523704599      3.9882479002116824
    85   1      1.6783822512855497      24.589255353272733      5.7563378190651093
    86   1   0.0013247823119257574      25.160877760224025        3.98824822287277
    87   1      5.0572198697657234      17.730965506982898      5.7563383022089951
    88   1      6.7013536207873923      17.140111001958374      3.9882478518866185
    89   1      7.2707523135841923       18.86819141826858      5.7563385802499036
    90   1      6.1497826276149175      21.157001586014616      5.7563382379285404
    91   1      7.8223542980716099      20.595531251307278      3.9882478021634324
    92   1      5.5930254373695423       19.43788181802293      3.9882479114873024
    93   1      8.3856873983056381      22.303297354810496      5.7563381849948474
    94   1      7.2673436700641014      24.589255651991408      5.7563378597071484
    95   1      8.9444565571943802      24.016481606566316      3.9882481322336618
    96   1       6.707279691147038      22.876091105526058      3.9882480840787071
    97   1       2.792059179614776      16.564446856344517      5.7563376824470698
    98   1      3.3355726679084015       18.32790294122718      3.9882482165042847
    99   1      3.9174047629099626      20.015565021230145      5.7563381707062637
   100   1      2.7967260815487327      22.303297676878088      5.7563380160501874
   101   1      4.4740441314861803      21.728426782002686      3.9882480912071552
   102   1      5.0318996123585924      23.444823785312991       5.756337920670541
   103   1      5.5902862983320043      25.160878000619675      3.9882482540391675
   104   1      3.3554950251428317      24.016481328529579      3.9882482309338929
   105   1      10.079524391425117      13.839953686311404      3.9882482275355793
   106   1      10.646192724420905      12.269034580943384      5.7563382942814396
   107   1      10.079513096842007      16.160049945306056      3.9882477593359411
   108   1      8.9444776733220586      5.9835194843453507      3.9882481636183074
   109   1      10.620881154413068      6.5551771699672656      5.7563383917581987
   110   1      10.063025133068749      8.2715744223063723       3.988248259343536
   111   1      7.8223712831499217      9.4044687085062861      3.9882483176359442
   112   1      9.5063803406780867      9.9844326300135293      5.7563383497732685
   113   1      8.3857065661798504       7.696702219841697      5.7563383879603593
   114   1      8.9245475967004229      11.672097310407636      3.9882481922517203
   115   1      6.7013668800832304       12.85989473434573      3.9882483572602156
   116   1      8.3810359982578486      13.435561519405638      5.7563389529082487
   117   1      7.2707662134430757      11.131812431967077      5.7563382799013425
   118   1      7.8251198271553415      15.000004941789484      3.9882473649109573
   119   1      6.0294723480858963      15.000005823028843      5.7563382292384766
   120   1      5.5903103705498083      4.8391219993803247       3.988248210227149
   121   1      7.2673651430425634      5.4107448646061158        5.75633836849339
   122   1      6.7072986692502639      7.1239104009501659      3.9882482521362306
   123   1      4.4740640716545945      8.2715744419632102      3.9882484463557102
   124   1      6.1498009125685282      8.8430010357233044      5.7563382173437576
   125   1      5.0319201054382168       6.555177411135773      5.7563383038413116
   126   1      5.5930410238878379      10.562120106570774      3.9882486157741903
   127   1      3.3355863483218391      11.672097375433708      3.9882488848223621
   128   1      5.0572313315263662      12.269034578632912      5.7563378257390054
   129   1      3.9174191435397923      9.9844327222834721      5.7563379600232079
   130   1      4.4905629627828993      13.839953593684371      3.9882488032075698
   131   1      2.2361584654597917      15.000004586805673      3.9882490343707171
   132   1      4.4905516521728357      16.160049951266998      3.9882483231303785
   133   1      2.7920745763951467      13.435561615778823      5.7563373837686189
   134   1      3.3555159029857027       5.983519523391962      3.9882482572883351
   135   1      1.1183376656260566      7.1239104118327532      3.9882482838749329
   136   1      2.7967449256980319      7.6967020503585815      5.7563382194592876
   137   1      1.6784040902509729      5.4107451408858651        5.75633832990433
   138   1      2.2334096601631375      9.4044686609344836      3.9882485642227903
   139   1   0.0040797886741253979      10.562120064171097      3.9882484494842827
   140   1      1.6818047134825813      11.131812312279337      5.7563379346131356
   141   1     0.56083977885578307       8.843001183858533      5.7563382378526589
   142   1      1.1124055845554843      12.859894856021072      3.9882486932675403
   143   1     0.44051095814651625      15.000005822744455       5.756338050932758
   144   1   0.0013485713477000309      4.8391220552825871       3.988248184196622
