(written by ASE)

224 atoms
1 atom types

0.0      18.030518817995052  xlo xhi
0.0                      30  ylo yhi
0.0      7.0723586277786685  zlo zhi

Atoms # atomic

     1   1      14.536088571566777       16.52723548763845  3.8559335435175755e-08
     2   1      15.175736621305061      19.884441884358893  7.8445200813132951e-08
     3   1      14.806271086780599      18.188161697106523      1.7680897573354486
     4   1      15.526354718342988      21.645714496540421      1.7680897423835624
     5   1      12.468126686271102      14.999999973663421  6.9102960892187182e-08
     6   1      10.915855508674197      16.916076329424868  8.0996537705912396e-08
     7   1      12.622976343455919      16.786169376885937       1.768089752131903
     8   1      10.646420464734126      14.999999988334196      1.7680897459386704
     9   1      13.021295032890443      18.503563478598807  7.7575989257961666e-08
    10   1      11.690869896859562      20.634875260222742  8.2246489887594266e-08
    11   1       13.41566822334574       20.26737430163837      1.7680897423487603
    12   1        11.3156485420614      18.849042007980898      1.7680897413359666
    13   1      13.788999881965898       22.02194042212534  8.3495311390924364e-08
    14   1      12.399047559003666      24.152639961011573  8.6535421485771349e-08
    15   1      14.138074697131808      23.788352021382224      1.7680897436306269
    16   1      12.046872227280621      22.394508228694662      1.7680897414659369
    17   1      8.8294107710698242      14.999999980548637  8.6676979738309895e-08
    18   1      7.6459046402162922      17.788414061133409  8.6909208625218683e-08
    19   1      9.3562864400240162      17.287036734879564      1.7680897402425071
    20   1      7.2887422035860041      16.171706673800401      1.7680897327523657
    21   1      9.6590764922848091       19.16393852677669  8.2407085571026635e-08
    22   1      8.2432419109484396      21.294604388596611  8.3654237278497646e-08
    23   1       9.966805744141892      20.972972631058184       1.768089739985901
    24   1      7.9300070604010076       19.51092060020099      1.7680897374989115
    25   1      10.308019183669803      22.746458893083542  8.4442978078777806e-08
    26   1      8.9244645697590244      24.864211177410937  8.8150099597138899e-08
    27   1      10.658736731262612       24.51222296929285      1.7680897441101762
    28   1      8.5775624230137293      23.085724534236789      1.7680897420789823
    29   1      3.4528672756313417      15.000000000517417  9.8867329102356332e-08
    30   1      5.5208291663649263       16.52723548623635  1.2020019857581465e-07
    31   1      4.0060356189762203      18.503563486000075  8.6803611418353046e-08
    32   1      5.7910116841615995      18.188161701528401      1.7680897266535087
    33   1      3.6077169383713041      16.786169377522498      1.7680897316763313
    34   1      6.1604772137037971      19.884441874803059  8.6340874784919027e-08
    35   1      4.7737404648460853      22.021940410185437  8.5008095194606683e-08
    36   1      6.5110953068297324      21.645714481039334      1.7680897397617357
    37   1      4.4004088061183406      20.267374293467668      1.7680897380642051
    38   1      6.8533411154909194      23.429752517121557  8.6384657279860244e-08
    39   1      5.1228152825617403      23.788352005920018      1.7680897440986074
    40   1      5.1827472235190282      14.999999967551418      1.7680896911887862
    41   1       17.84467017523864      15.000000031053304  8.5096127179921108e-08
    42   1      1.6311610509367425      15.000000001620549      1.7680897403859424
    43   1       1.900596089101579      16.916076341151353  8.4588576266344376e-08
    44   1     0.64381706814775796      19.163938535256619  8.1911064799638733e-08
    45   1      2.3003891144944517      18.849042018101869      1.7680897378787486
    46   1     0.34102701319191658      17.287036737958658      1.7680897395079516
    47   1      2.6756104729022212       20.63487525837192  8.3593330885174952e-08
    48   1       1.292759769582315      22.746458902267875  8.5927385042386885e-08
    49   1      3.0316128090191463      22.394508226255113      1.7680897420245367
    50   1     0.95154632263018524      20.972972637290155      1.7680897405676699
    51   1      3.3837881478876093      24.152639956918165  8.8432563707100204e-08
    52   1      1.6434773259139077      24.512222978046111      1.7680897462786429
    53   1      16.304001602876188      16.171706680667796      1.7680897486472229
    54   1       16.66116403268137      17.788414060199074  7.6726189529166369e-08
    55   1      16.945266457854601      19.510920608731084      1.7680897419727288
    56   1      17.258501312780911      21.294604402101925   8.319623742717903e-08
    57   1       15.86860053004032      23.429752537738381  8.6290335090834078e-08
    58   1      17.592821832543045      23.085724552673753      1.7680897435454737
    59   1      17.939723985581754      24.864211195351572  8.9761719912320652e-08
    60   1      14.198006631983482       14.99999992046898      1.7680898082655843
    61   1      17.258501370982938      8.7053956022558623  8.4835051061176655e-08
    62   1      17.592821890227953      6.9142754574070011      1.7680897391471555
    63   1      16.661164089190407      12.211585930746907  8.2846395615858561e-08
    64   1      16.945266508452981      10.489079400417154      1.7680897468948029
    65   1      16.304001613055117      13.828293352572885      1.7680897544046144
    66   1       15.86860058415747      6.5702474756909908  8.0247613685354187e-08
    67   1      13.788999930488067      7.9780595827928522  8.2255366197132488e-08
    68   1      15.526354771276557      8.3542855100596256      1.7680897424045376
    69   1      14.138074750367313      6.2116479895200598      1.7680897361070032
    70   1       15.17573667002118      10.115558128446594  8.2119760113537381e-08
    71   1      13.021295074254621      11.496436496543737  8.1985964673621472e-08
    72   1      14.806271133496589        11.8118382851234      1.7680897613074267
    73   1      13.415668268132443      9.7326257086441927      1.7680897451663999
    74   1      14.536088586437385      13.472764569225617  4.1263867507306494e-08
    75   1      12.622976407864634      13.213830663892068      1.7680897555888047
    76   1      12.399047614112016      5.8473600417779892  7.7491291669977689e-08
    77   1      10.308019230803671      7.2535410960392426  8.1294786760935283e-08
    78   1      12.046872272458668      7.6054917692845265      1.7680897392037751
    79   1      10.658736790148813      5.4877770223853872      1.7680897336991355
    80   1      11.690869931976623      9.3651247424164978   8.460629532168495e-08
    81   1       9.659076518685815      10.836061464261249  8.7432947648255642e-08
    82   1      11.315648551424077      11.150957958065177      1.7680897461253293
    83   1      9.9668057821113489      9.0270273629981119      1.7680897420236248
    84   1      10.915855518883937      13.083923648729183  8.5476772709180107e-08
    85   1      9.3562864653083384      12.712963253856557      1.7680897457598628
    86   1      8.9244646310315705      5.1357888046484135  7.6513435600422436e-08
    87   1      6.8533411725378679        6.57024746418071  8.1381261029294317e-08
    88   1       8.577562473420052      6.9142754475247727      1.7680897380435925
    89   1      8.2432419505255456      8.7053955968909804  8.5361105082959349e-08
    90   1      6.1604772557370309      10.115558129090203  9.0599975713821312e-08
    91   1      7.9300070883421379      10.489079398956378      1.7680897425649615
    92   1      6.5110953584576761        8.35428550546618        1.76808974079864
    93   1      7.6459046681991953      12.211585936330877  9.2875733457742019e-08
    94   1      5.5208291758278198      13.472764571095155  1.2293052567755121e-07
    95   1      7.2887421985304091      13.828293346424388      1.7680897387041428
    96   1      5.7910117160071639      11.811838296777111      1.7680897312760684
    97   1      3.3837882094475749      5.8473600373651635  8.0794047787357187e-08
    98   1      5.1228153431182326      6.2116479798259547      1.7680897379439267
    99   1      4.7737405246306421      7.9780595795801474  8.5155433202374084e-08
   100   1      2.6756105341638925      9.3651247454903626  8.7078096749034185e-08
   101   1       4.400408861685265      9.7326257100469178      1.7680897418843726
   102   1      3.0316128721218019      7.6054917699733977      1.7680897408856204
   103   1      4.0060356641839938      11.496436512425362  9.1985494421838188e-08
   104   1      1.9005961118073971      13.083923664222453  8.9655027988248781e-08
   105   1      3.6077169885831313      13.213830669621814      1.7680897356510057
   106   1      2.3003891550522804       11.15095797291886      1.7680897434482754
   107   1      17.939724043080101      5.1357888144610939  7.7858529785357283e-08
   108   1      1.6434773854579587      5.4877770252430196      1.7680897366383774
   109   1      1.2927598317543989      7.2535411015807938  8.3303906695273713e-08
   110   1     0.95154638619098975      9.0270273673024946      1.7680897431113212
   111   1     0.64381712053355433      10.836061471281241  8.7563192724183586e-08
   112   1     0.34102706669752197      12.712963253963025      1.7680897453962647
   113   1      14.536088571566777       16.52723548763845      3.5361793524486687
   114   1      15.175736621305061      19.884441884358893      3.5361793923345344
   115   1      14.806271086780599      18.188161697106523      5.3042690712247822
   116   1      15.526354718342988      21.645714496540421      5.3042690562728971
   117   1      12.468126686271102      14.999999973663421       3.536179382992295
   118   1      10.915855508674197      16.916076329424868      3.5361793948858709
   119   1      12.622976343455919      16.786169376885937       5.304269066021237
   120   1      10.646420464734126      14.999999988334196      5.3042690598280045
   121   1      13.021295032890443      18.503563478598807       3.536179391465323
   122   1      11.690869896859562      20.634875260222742      3.5361793961358234
   123   1       13.41566822334574       20.26737430163837      5.3042690562380947
   124   1        11.3156485420614      18.849042007980898      5.3042690552253013
   125   1      13.788999881965898       22.02194042212534      3.5361793973846454
   126   1      12.399047559003666      24.152639961011573      3.5361794004247549
   127   1      14.138074697131808      23.788352021382224        5.30426905751996
   128   1      12.046872227280621      22.394508228694662      5.3042690553552694
   129   1      8.8294107710698242      14.999999980548637      3.5361794005663141
   130   1      7.6459046402162922      17.788414061133409      3.5361794007985425
   131   1      9.3562864400240162      17.287036734879564        5.30426905413184
   132   1      7.2887422035860041      16.171706673800401         5.3042690466417
   133   1      9.6590764922848091       19.16393852677669       3.536179396296419
   134   1      8.2432419109484396      21.294604388596611      3.5361793975435711
   135   1       9.966805744141892      20.972972631058184      5.3042690538752346
   136   1      7.9300070604010076       19.51092060020099      5.3042690513882444
   137   1      10.308019183669803      22.746458893083542      3.5361793983323122
   138   1      8.9244645697590244      24.864211177410937       3.536179402039433
   139   1      10.658736731262612       24.51222296929285      5.3042690579995089
   140   1      8.5775624230137293      23.085724534236789      5.3042690559683168
   141   1      3.4528672756313417      15.000000000517417      3.5361794127566624
   142   1      5.5208291663649263       16.52723548623635      3.5361794340895325
   143   1      4.0060356189762203      18.503563486000075      3.5361794006929452
   144   1      5.7910116841615995      18.188161701528401      5.3042690405428434
   145   1      3.6077169383713041      16.786169377522498      5.3042690455656647
   146   1      6.1604772137037971      19.884441874803059      3.5361794002302087
   147   1      4.7737404648460853      22.021940410185437      3.5361793988974286
   148   1      6.5110953068297324      21.645714481039334       5.304269053651069
   149   1      4.4004088061183406      20.267374293467668      5.3042690519535389
   150   1      6.8533411154909194      23.429752517121557       3.536179400273991
   151   1      5.1228152825617403      23.788352005920018      5.3042690579879404
   152   1      5.1827472235190282      14.999999967551418      5.3042690050781189
   153   1       17.84467017523864      15.000000031053304      3.5361793989854613
   154   1      1.6311610509367425      15.000000001620549      5.3042690542752773
   155   1       1.900596089101579      16.916076341151353        3.53617939847791
   156   1     0.64381706814775796      19.163938535256619      3.5361793958003984
   157   1      2.3003891144944517      18.849042018101869      5.3042690517680819
   158   1     0.34102701319191658      17.287036737958658      5.3042690533972854
   159   1      2.6756104729022212       20.63487525837192      3.5361793974826647
   160   1       1.292759769582315      22.746458902267875      3.5361793998167181
   161   1      3.0316128090191463      22.394508226255113      5.3042690559138705
   162   1     0.95154632263018524      20.972972637290155       5.304269054457003
   163   1      3.3837881478876093      24.152639956918165      3.5361794023218969
   164   1      1.6434773259139077      24.512222978046111      5.3042690601679761
   165   1      16.304001602876188      16.171706680667796      5.3042690625365561
   166   1       16.66116403268137      17.788414060199074      3.5361793906155237
   167   1      16.945266457854601      19.510920608731084      5.3042690558620613
   168   1      17.258501312780911      21.294604402101925      3.5361793970855708
   169   1       15.86860053004032      23.429752537738381      3.5361794001796687
   170   1      17.592821832543045      23.085724552673753      5.3042690574348068
   171   1      17.939723985581754      24.864211195351572      3.5361794036510537
   172   1      14.198006631983482       14.99999992046898       5.304269122154917
   173   1      17.258501370982938      8.7053956022558623      3.5361793987243848
   174   1      17.592821890227953      6.9142754574070011      5.3042690530364895
   175   1      16.661164089190407      12.211585930746907      3.5361793967357293
   176   1      16.945266508452981      10.489079400417154      5.3042690607841365
   177   1      16.304001613055117      13.828293352572885       5.304269068293948
   178   1       15.86860058415747      6.5702474756909908      3.5361793941369468
   179   1      13.788999930488067      7.9780595827928522      3.5361793961446999
   180   1      15.526354771276557      8.3542855100596256      5.3042690562938715
   181   1      14.138074750367313      6.2116479895200598      5.3042690499963374
   182   1       15.17573667002118      10.115558128446594      3.5361793960090941
   183   1      13.021295074254621      11.496436496543737      3.5361793958752989
   184   1      14.806271133496589        11.8118382851234      5.3042690751967605
   185   1      13.415668268132443      9.7326257086441927      5.3042690590557333
   186   1      14.536088586437385      13.472764569225617      3.5361793551532008
   187   1      12.622976407864634      13.213830663892068      5.3042690694781385
   188   1      12.399047614112016      5.8473600417779892      3.5361793913806254
   189   1      10.308019230803671      7.2535410960392426      3.5361793951841203
   190   1      12.046872272458668      7.6054917692845265        5.30426905309311
   191   1      10.658736790148813      5.4877770223853872      5.3042690475884697
   192   1      11.690869931976623      9.3651247424164978      3.5361793984956296
   193   1       9.659076518685815      10.836061464261249      3.5361794013222814
   194   1      11.315648551424077      11.150957958065177      5.3042690600146631
   195   1      9.9668057821113489      9.0270273629981119      5.3042690559129593
   196   1      10.915855518883937      13.083923648729183       3.536179399366107
   197   1      9.3562864653083384      12.712963253856557      5.3042690596491955
   198   1      8.9244646310315705      5.1357888046484135       3.536179390402769
   199   1      6.8533411725378679        6.57024746418071      3.5361793952705951
   200   1       8.577562473420052      6.9142754475247727      5.3042690519329252
   201   1      8.2432419505255456      8.7053955968909804      3.5361793992504391
   202   1      6.1604772557370309      10.115558129090203      3.5361794044893093
   203   1      7.9300070883421379      10.489079398956378      5.3042690564542951
   204   1      6.5110953584576761        8.35428550546618      5.3042690546879738
   205   1      7.6459046681991953      12.211585936330877      3.5361794067650667
   206   1      5.5208291758278198      13.472764571095155      3.5361794368198596
   207   1      7.2887421985304091      13.828293346424388      5.3042690525934777
   208   1      5.7910117160071639      11.811838296777111      5.3042690451654018
   209   1      3.3837882094475749      5.8473600373651635      3.5361793946833822
   210   1      5.1228153431182326      6.2116479798259547        5.30426905183326
   211   1      4.7737405246306421      7.9780595795801474      3.5361793990447667
   212   1      2.6756105341638925      9.3651247454903626      3.5361794009674306
   213   1       4.400408861685265      9.7326257100469178      5.3042690557737053
   214   1      3.0316128721218019      7.6054917699733977       5.304269054774954
   215   1      4.0060356641839938      11.496436512425362      3.5361794058748277
   216   1      1.9005961118073971      13.083923664222453      3.5361794035443621
   217   1      3.6077169885831313      13.213830669621814      5.3042690495403386
   218   1      2.3003891550522804       11.15095797291886       5.304269057337609
   219   1      17.939724043080101      5.1357888144610939      3.5361793917478637
   220   1      1.6434773854579587      5.4877770252430196      5.3042690505277115
   221   1      1.2927598317543989      7.2535411015807938      3.5361793971932407
   222   1     0.95154638619098975      9.0270273673024946      5.3042690570006554
   223   1     0.64381712053355433      10.836061471281241      3.5361794014525265
   224   1     0.34102706669752197      12.712963253963025      5.3042690592855983
