(written by ASE)

276 atoms
1 atom types

0.0      21.506762889276093  xlo xhi
0.0                      30  ylo yhi
0.0      7.0723586277786685  zlo zhi

Atoms # atomic

     1   1       9.205819774878556      16.757376940230415      1.7680896541537907
     2   1       9.841137267458997      20.169339073231868      1.7680896541451168
     3   1      9.5195702392043291      18.436912388408047      3.5361793110900899
     4   1      10.474069303134671      23.697968298816619      1.7680896541365247
     5   1      10.170750714066212      21.922499549624973      3.5361793110854793
     6   1      5.7487492751937284      16.937540933279564      1.7680896541511779
     7   1       7.438022258543592      16.835134007838178      3.5361793110942683
     8   1      7.7353902965388945      18.680528963709861      1.7680896541492384
     9   1      6.3785988121748272      20.771616978445081      1.7680896541522306
    10   1      8.0924434588753176      20.475226160540274      3.5361793110915571
    11   1      6.0804913386986135      18.922442527288752      3.5361793110949971
    12   1      8.4189550905745403      22.248860598423306      1.7680896541454918
    13   1      6.9716575912138827      24.324060266746415      1.7680896541496403
    14   1      8.7249393345425954      24.014985324596296      3.5361793110856263
    15   1      6.6749937690660373      22.555326910808219      3.5361793110958759
    16   1      2.4626607969105021      17.798244652367003        1.76808965415606
    17   1      4.1886531040571757      17.311122543243386      3.5361793110953239
    18   1      2.1436226073104252       16.17401400946801      3.5361793110894477
    19   1      4.4346292671533796      19.203356176227885      1.7680896541546283
    20   1      2.9356613332608474      21.303209064583598       1.768089654162827
    21   1      4.6680357063801914       21.03530699622516      3.5361793111015016
    22   1      2.6914276720742905      19.519076923563802      3.5361793110989193
    23   1      4.9343828647681942      22.835971530076193      1.7680896541595534
    24   1      3.4811132254390191      24.902689384135471      1.7680896541670534
    25   1      5.2220438728638117      24.618197062617867      3.5361793111032389
    26   1      3.1985778817894239      23.105686989974231      3.5361793111102173
    27   1     0.37139420435247411        16.5231982106217      1.7680896541812137
    28   1      20.272951683836464      18.436912388373514      1.7680896541584874
    29   1     0.59169699130650344      18.168496753711679      3.5361793110867272
    30   1       19.95920121947681      16.757376940309314      3.5361793110881954
    31   1     0.89267643978224476      19.850237502785632      1.7680896541622158
    32   1      20.924132158686032      21.922499549599252      1.7680896541664803
    33   1      1.1780768694112442      21.600713881603156       3.536179311108826
    34   1      20.594518712077338      20.169339073244942      3.5361793111024475
    35   1       1.462554297810339      23.390428036630908      1.7680896541704401
    36   1      1.7464556143141732      25.188733340884937      3.5361793111155042
    37   1      21.227450747759988      23.697968298809229      3.5361793111144872
    38   1      18.191403703161331      16.835134007866316      1.7680896541524733
    39   1      16.833872783356334      18.922442527286336      1.7680896541524342
    40   1      18.488771741153794      18.680528963693178      3.5361793110974582
    41   1       16.50213071983746       16.93754093328144      3.5361793110931639
    42   1      18.845824903478515      20.475226160549511      1.7680896541591484
    43   1      17.428375213705934      22.555326910810123      1.7680896541564539
    44   1      19.172336535192443      22.248860598408697      3.5361793111068929
    45   1      17.131980256821432      20.771616978463214      3.5361793110991218
    46   1      19.478320779179203      24.014985324606357       1.768089654165093
    47   1      17.725039035867361      24.324060266773415      3.5361793111003839
    48   1      12.897004051947071      16.174014009426543      1.7680896541467177
    49   1      14.942034548642672      17.311122543254811      1.7680896541485516
    50   1      13.444809116713111      19.519076923549989      1.7680896541458753
    51   1      15.188010711718761      19.203356176216573      3.5361793110930693
    52   1      13.216042241604471      17.798244652431606      3.5361793110880098
    53   1      15.421417151000673      21.035306996262364      1.7680896541500173
    54   1      13.951959326447842      23.105686989996542      1.7680896541408293
    55   1      15.687764309404752      22.835971530096344      3.5361793110925555
    56   1      13.689042777917924      21.303209064618983      3.5361793110886932
    57   1      15.975425317521086      24.618197062656492      1.7680896541438995
    58   1       14.23449467010159      24.902689384173499      3.5361793110788597
    59   1      11.124775648927601      16.523198210505683      3.5361793110859852
    60   1      11.345078435938001      18.168496753772985       1.768089654152216
    61   1      11.646057884416601      19.850237502772245      3.5361793110873503
    62   1      11.931458314063031      21.600713881641298      1.7680896541414455
    63   1      12.215935742462365       23.39042803665339      3.5361793110807556
    64   1      12.499837058963827      25.188733340915633      1.7680896541286077
    65   1       18.08330891962801      15.000000000014523       3.536179311093556
    66   1    0.053772929799739543      14.999999999939689      3.5361793110536324
    67   1      10.807154374426251      15.000000000111868      1.7680896541756235
    68   1      19.846145368515597      14.999999999995794      1.7680896541640156
    69   1      5.4971333274471075      14.999999999998806      3.5361793110974622
    70   1      7.3299274749981933      15.000000000003354      1.7680896541577007
    71   1      9.0927639238791151      15.000000000030695      3.5361793110986746
    72   1      3.6812480094275979      15.000000000025324      1.7680896541494404
    73   1      14.434629454052601      15.000000000002956      3.5361793110993882
    74   1      21.227450747803228      6.3020317011687013      3.5361793111395752
    75   1      20.594518712103376      9.8306609267683172      3.5361793111156832
    76   1      20.924132158719484      8.0775004503854007      1.7680896541842337
    77   1       19.95920121952657      13.242623059788031       3.536179311092996
    78   1       20.27295168385454      11.563087611624411       1.768089654165468
    79   1      17.725039035908249      5.6759397332200336      3.5361793111576505
    80   1      19.478320779220859      5.9850146753786788      1.7680896542008322
    81   1      19.172336535230421       7.751139401581213      3.5361793111366095
    82   1      17.131980256858444      9.2283830215609015      3.5361793111361783
    83   1      18.845824903508348      9.5247738394680397       1.768089654181251
    84   1       17.42837521374658      7.4446730891881998      1.7680896542034172
    85   1      18.488771741156071      11.319471036299191       3.536179311114521
    86   1      16.502130719857419      13.062459066751103      3.5361793111085835
    87   1      18.191403703167197      13.164865992175834      1.7680896541605735
    88   1      16.833872783388315      11.077557472732053      1.7680896541786755
    89   1      14.234494670140572      5.0973106158296275      3.5361793111846906
    90   1      15.975425317559747       5.381802937343636      1.7680896542266291
    91   1      15.687764309445333      7.1640284699078762      3.5361793111602613
    92   1      13.689042777952261       8.696790935400017      3.5361793111540183
    93   1      15.421417151034884      8.9646930037580859      1.7680896542004885
    94   1      13.951959326488122      6.8943130100109471      1.7680896542266047
    95   1       15.18801071175595      10.796643823795975       3.536179311129394
    96   1       13.21604224159903      12.201755347614693      3.5361793111230373
    97   1      14.942034548637581      12.688877456784411      1.7680896541709201
    98   1      13.444809116744826      10.480923076457088      1.7680896541920621
    99   1      12.897004051990631      13.825985990555495      1.7680896541767674
   100   1      1.1780768694365398      8.3992861183779866      3.5361793111262241
   101   1     0.59169699131405629      11.831503246279965      3.5361793110922526
   102   1      12.499837059003273      4.8112666590843531      1.7680896542493982
   103   1      12.215935742500839      6.6095719633518399      3.5361793111800788
   104   1      10.170750714095925      8.0775004503872339      3.5361793111673192
   105   1      11.931458314095019      8.3992861183745475      1.7680896542165159
   106   1      10.474069303172428      6.3020317011833527      1.7680896542394862
   107   1      11.646057884446044      10.149762497225396      3.5361793111412174
   108   1      9.5195702392147901      11.563087611629712      3.5361793111282389
   109   1      11.345078435951665      11.831503246269904      1.7680896541850866
   110   1      9.8411372674782918      9.8306609267629028      1.7680896542034941
   111   1      11.124775648970932      13.476801789411411       3.536179311103266
   112   1      9.2058197748229951      13.242623059678067       1.768089654173242
   113   1      8.7249393345839561      5.9850146753968545      3.5361793111839481
   114   1      6.6749937690993377      7.4446730891911557      3.5361793111642918
   115   1      8.4189550906035624      7.7511394015838846      1.7680896542235129
   116   1      6.9716575912629839      5.6759397332386499      1.7680896542323341
   117   1      8.0924434588922232      9.5247738394531893      3.5361793111498514
   118   1      6.0804913387016439      11.077557472713607      3.5361793111306219
   119   1      7.7353902965703289      11.319471036328451       1.768089654186477
   120   1      6.3785988121902095      9.2283830215442038       1.768089654202736
   121   1      7.4380222585483988      13.164865992149828      3.5361793111122615
   122   1      5.7487492751915772      13.062459066719498      1.7680896541661593
   123   1      5.2220438729185732      5.3818029373605327      3.5361793111673854
   124   1      3.1985778818283563      6.8943130100065844      3.5361793111460242
   125   1      4.9343828648038643      7.1640284699131769      1.7680896542104294
   126   1      3.4811132254967383      5.0973106158372303       1.768089654211993
   127   1      4.6680357063976867      8.9646930037637702      3.5361793111406725
   128   1      2.6914276720789498      10.480923076437364      3.5361793111155482
   129   1      4.4346292671473311       10.79664382377311      1.7680896541814557
   130   1      2.9356613332827362      8.6967909354001875      1.7680896541872229
   131   1      4.1886531040583437      12.688877456745502      3.5361793111098239
   132   1      2.1436226073006157      13.825985990566124      3.5361793110926789
   133   1      2.4626607969278345       12.20175534761961      1.7680896541625315
   134   1     0.89267643979148403      10.149762497223008      1.7680896541711204
   135   1     0.37139420433181419      13.476801789466123      1.7680896541815818
   136   1      1.7464556143698715      4.8112666590850637      3.5361793111495601
   137   1      1.4625542978507902      6.6095719633452177      1.7680896541949176
   138   1      16.250514772085925      15.000000000016144      1.7680896541538695
   139   1       9.205819774878556      16.757376940230415      5.3042689680431252
   140   1       9.841137267458997      20.169339073231868      5.3042689680344495
   141   1      9.5195702392043291      18.436912388408047 -2.7992442398021349e-09
   142   1      10.474069303134671      23.697968298816619      5.3042689680258581
   143   1      10.170750714066212      21.922499549624973 -2.8038548582318486e-09
   144   1      5.7487492751937284      16.937540933279564      5.3042689680405104
   145   1       7.438022258543592      16.835134007838178 -2.7950654547954135e-09
   146   1      7.7353902965388945      18.680528963709861      5.3042689680385724
   147   1      6.3785988121748272      20.771616978445081      5.3042689680415638
   148   1      8.0924434588753176      20.475226160540274 -2.7977775245234384e-09
   149   1      6.0804913386986135      18.922442527288752 -2.7943367421373673e-09
   150   1      8.4189550905745403      22.248860598423306      5.3042689680348252
   151   1      6.9716575912138827      24.324060266746415      5.3042689680389739
   152   1      8.7249393345425954      24.014985324596296 -2.8037072177508902e-09
   153   1      6.6749937690660373      22.555326910808219 -2.7934573922362329e-09
   154   1      2.4626607969105021      17.798244652367003      5.3042689680453945
   155   1      4.1886531040571757      17.311122543243386 -2.7940100950651521e-09
   156   1      2.1436226073104252       16.17401400946801 -2.7998865458187535e-09
   157   1      4.4346292671533796      19.203356176227885      5.3042689680439619
   158   1      2.9356613332608474      21.303209064583598      5.3042689680521606
   159   1      4.6680357063801914       21.03530699622516 -2.7878322699333026e-09
   160   1      2.6914276720742905      19.519076923563802  -2.790415578781791e-09
   161   1      4.9343828647681942      22.835971530076193      5.3042689680488868
   162   1      3.4811132254390191      24.902689384135471      5.3042689680563875
   163   1      5.2220438728638117      24.618197062617867 -2.7860954464945851e-09
   164   1      3.1985778817894239      23.105686989974231 -2.7791166867373467e-09
   165   1     0.37139420435247411        16.5231982106217      5.3042689680705477
   166   1      20.272951683836464      18.436912388373514       5.304268968047821
   167   1     0.59169699130650344      18.168496753711679 -2.8026064071283181e-09
   168   1       19.95920121947681      16.757376940309314 -2.8011380935764859e-09
   169   1     0.89267643978224476      19.850237502785632      5.3042689680515496
   170   1      20.924132158686032      21.922499549599252      5.3042689680558137
   171   1      1.1780768694112442      21.600713881603156 -2.7805079835024267e-09
   172   1      20.594518712077338      20.169339073244942 -2.7868868913732274e-09
   173   1       1.462554297810339      23.390428036630908      5.3042689680597741
   174   1      1.7464556143141732      25.188733340884937 -2.7738307979075788e-09
   175   1      21.227450747759988      23.697968298809229 -2.7748468001618606e-09
   176   1      18.191403703161331      16.835134007866316      5.3042689680418071
   177   1      16.833872783356334      18.922442527286336      5.3042689680417672
   178   1      18.488771741153794      18.680528963693178 -2.7918760008600131e-09
   179   1       16.50213071983746       16.93754093328144  -2.796169362072187e-09
   180   1      18.845824903478515      20.475226160549511      5.3042689680484818
   181   1      17.428375213705934      22.555326910810123      5.3042689680457871
   182   1      19.172336535192443      22.248860598408697 -2.7824411947527576e-09
   183   1      17.131980256821432      20.771616978463214 -2.7902113993886387e-09
   184   1      19.478320779179203      24.014985324606357      5.3042689680544264
   185   1      17.725039035867361      24.324060266773415 -2.7889503618841602e-09
   186   1      12.897004051947071      16.174014009426543      5.3042689680360517
   187   1      14.942034548642672      17.311122543254811      5.3042689680378849
   188   1      13.444809116713111      19.519076923549989      5.3042689680352089
   189   1      15.188010711718761      19.203356176216573 -2.7962651585682892e-09
   190   1      13.216042241604471      17.798244652431606 -2.8013233933682166e-09
   191   1      15.421417151000673      21.035306996262364      5.3042689680393504
   192   1      13.951959326447842      23.105686989996542       5.304268968030164
   193   1      15.687764309404752      22.835971530096344 -2.7967787037053716e-09
   194   1      13.689042777917924      21.303209064618983 -2.8006402314945532e-09
   195   1      15.975425317521086      24.618197062656492      5.3042689680332327
   196   1       14.23449467010159      24.902689384173499 -2.8104740065334374e-09
   197   1      11.124775648927601      16.523198210505683 -2.8033492045683771e-09
   198   1      11.345078435938001      18.168496753772985      5.3042689680415505
   199   1      11.646057884416601      19.850237502772245 -2.8019844790941855e-09
   200   1      11.931458314063031      21.600713881641298      5.3042689680307795
   201   1      12.215935742462365       23.39042803665339 -2.8085785544859504e-09
   202   1      12.499837058963827      25.188733340915633      5.3042689680179427
   203   1       18.08330891962801      15.000000000014523 -2.7957767862331026e-09
   204   1    0.053772929799739543      14.999999999939689 -2.8357005503631263e-09
   205   1      10.807154374426251      15.000000000111868      5.3042689680649566
   206   1      19.846145368515597      14.999999999995794       5.304268968053349
   207   1      5.4971333274471075      14.999999999998806 -2.7918728043137405e-09
   208   1      7.3299274749981933      15.000000000003354      5.3042689680470341
   209   1      9.0927639238791151      15.000000000030695 -2.7906605141399169e-09
   210   1      3.6812480094275979      15.000000000025324      5.3042689680387731
   211   1      14.434629454052601      15.000000000002956 -2.7899459861559548e-09
   212   1      21.227450747803228      6.3020317011687013 -2.7497584070663841e-09
   213   1      20.594518712103376      9.8306609267683172 -2.7736501930431864e-09
   214   1      20.924132158719484      8.0775004503854007      5.3042689680735675
   215   1       19.95920121952657      13.242623059788031 -2.7963389788087684e-09
   216   1       20.27295168385454      11.563087611624411      5.3042689680548012
   217   1      17.725039035908249      5.6759397332200336 -2.7316833363847168e-09
   218   1      19.478320779220859      5.9850146753786788      5.3042689680901658
   219   1      19.172336535230421       7.751139401581213 -2.7527249018992814e-09
   220   1      17.131980256858444      9.2283830215609015 -2.7531567353222742e-09
   221   1      18.845824903508348      9.5247738394680397       5.304268968070585
   222   1       17.42837521374658      7.4446730891881998      5.3042689680927522
   223   1      18.488771741156071      11.319471036299191 -2.7748122375052898e-09
   224   1      16.502130719857419      13.062459066751103 -2.7807498222063516e-09
   225   1      18.191403703167197      13.164865992175834      5.3042689680499073
   226   1      16.833872783388315      11.077557472732053      5.3042689680680093
   227   1      14.234494670140572      5.0973106158296275 -2.7046430522216301e-09
   228   1      15.975425317559747       5.381802937343636       5.304268968115962
   229   1      15.687764309445333      7.1640284699078762 -2.7290718579722023e-09
   230   1      13.689042777952261       8.696790935400017 -2.7353156118709209e-09
   231   1      15.421417151034884      8.9646930037580859       5.304268968089823
   232   1      13.951959326488122      6.8943130100109471      5.3042689681159372
   233   1       15.18801071175595      10.796643823795975 -2.7599408054331069e-09
   234   1       13.21604224159903      12.201755347614693 -2.7662961387751486e-09
   235   1      14.942034548637581      12.688877456784411      5.3042689680602537
   236   1      13.444809116744826      10.480923076457088       5.304268968081395
   237   1      12.897004051990631      13.825985990555495      5.3042689680661006
   238   1      1.1780768694365398      8.3992861183779866 -2.7631097814939492e-09
   239   1     0.59169699131405629      11.831503246279965 -2.7970802778677621e-09
   240   1      12.499837059003273      4.8112666590843531      5.3042689681387323
   241   1      12.215935742500839      6.6095719633518399 -2.7092551690324092e-09
   242   1      10.170750714095925      8.0775004503872339 -2.7220145830471468e-09
   243   1      11.931458314095019      8.3992861183745475      5.3042689681058501
   244   1      10.474069303172428      6.3020317011833527      5.3042689681288193
   245   1      11.646057884446044      10.149762497225396 -2.7481173801237687e-09
   246   1      9.5195702392147901      11.563087611629712 -2.7610949584216006e-09
   247   1      11.345078435951665      11.831503246269904      5.3042689680744211
   248   1      9.8411372674782918      9.8306609267629028      5.3042689680928268
   249   1      11.124775648970932      13.476801789411411 -2.7860671770384882e-09
   250   1      9.2058197748229951      13.242623059678067      5.3042689680625754
   251   1      8.7249393345839561      5.9850146753968545 -2.7053857497696176e-09
   252   1      6.6749937690993377      7.4446730891911557 -2.7250422118275047e-09
   253   1      8.4189550906035624      7.7511394015838846      5.3042689681128463
   254   1      6.9716575912629839      5.6759397332386499      5.3042689681216677
   255   1      8.0924434588922232      9.5247738394531893 -2.7394834087498313e-09
   256   1      6.0804913387016439      11.077557472713607 -2.7587127323120631e-09
   257   1      7.7353902965703289      11.319471036328451      5.3042689680758102
   258   1      6.3785988121902095      9.2283830215442038      5.3042689680920692
   259   1      7.4380222585483988      13.164865992149828 -2.7770735942089008e-09
   260   1      5.7487492751915772      13.062459066719498      5.3042689680554931
   261   1      5.2220438729185732      5.3818029373605327 -2.7219485543882064e-09
   262   1      3.1985778818283563      6.8943130100065844 -2.7433104737745127e-09
   263   1      4.9343828648038643      7.1640284699131769      5.3042689680997634
   264   1      3.4811132254967383      5.0973106158372303      5.3042689681013258
   265   1      4.6680357063976867      8.9646930037637702 -2.7486622913711494e-09
   266   1      2.6914276720789498      10.480923076437364 -2.7737868453963329e-09
   267   1      4.4346292671473311       10.79664382377311      5.3042689680707893
   268   1      2.9356613332827362      8.6967909354001875      5.3042689680765571
   269   1      4.1886531040583437      12.688877456745502 -2.7795092625764307e-09
   270   1      2.1436226073006157      13.825985990566124 -2.7966546377531726e-09
   271   1      2.4626607969278345       12.20175534761961      5.3042689680518649
   272   1     0.89267643979148403      10.149762497223008      5.3042689680604544
   273   1     0.37139420433181419      13.476801789466123      5.3042689680709154
   274   1      1.7464556143698715      4.8112666590850637 -2.7397739947844103e-09
   275   1      1.4625542978507902      6.6095719633452177      5.3042689680842514
   276   1      16.250514772085925      15.000000000016144      5.3042689680432025
