(written by ASE)

180 atoms
1 atom types

0.0      14.584242368018158  xlo xhi
0.0                      30  ylo yhi
0.0      7.0723586277786685  zlo zhi

Atoms # atomic

     1   1      6.1916335941657215      18.238125154717579 -1.0426917832202628e-06
     2   1      5.8138236863192576      16.542329598761654       1.768088531635617
     3   1      7.0840289132754748      21.699087424633944 -9.7480504445359848e-07
     4   1      6.6545958015772895       19.94653351873734      1.7680886620405092
     5   1      3.9777726328681546      16.878645555074939 -1.0612037427627448e-06
     6   1      2.7948819097698823      19.086279015790439 -9.8494377839780825e-07
     7   1       4.478382648897445      18.652722400323682       1.768088648051928
     8   1      2.3900259067855942      17.233136365829893      1.7680886262236719
     9   1      4.9284791435591844      20.410551358888796 -9.7781877105464929e-07
    10   1       3.644271694766426      22.593777399523162 -9.8211166097603229e-07
    11   1      5.3666738835738084      22.148531493495284      1.7680886755266478
    12   1      3.2136145796244904      20.845089657893368      1.7680886832579152
    13   1      5.7945922367856069       23.89836986390938 -9.9995387624772149e-07
    14   1      4.0767958883003734      24.340808806264988       1.768088639498868
    15   1       13.10594478253079      16.542329331788693 -1.1261825313415992e-06
    16   1     0.70922161020752639      17.771515804389793 -1.0230000422796557e-06
    17   1       13.94671693110419      19.946533518296178 -9.8790024116990594e-07
    18   1      1.0881728261522121      19.494915698295955      1.7680886694803448
    19   1       13.48375478011925      18.238125266926346       1.768088614790444
    20   1      1.5011463563786258       21.26689976763285 -9.7245986032183428e-07
    21   1     0.21650433457326249      23.460886314245471 -9.9865497405437274e-07
    22   1      1.9283421677986143      23.028312541788409      1.7680886634836857
    23   1      14.376150072495969      21.699087474369207      1.7680886787830208
    24   1      2.3590434886320617      24.781588300092579 -1.0321310432350066e-06
    25   1       9.682146863027981      17.233136293258951  -1.050821844546828e-06
    26   1      11.269894164628788      16.878645218977738      1.7680885778384015
    27   1      11.770503856802957      18.652722538421159 -1.0144739694261157e-06
    28   1      10.505735750587474      20.845089675114053 -9.7008131393651659e-07
    29   1      12.220600295948316      20.410551374520082      1.7680886774852411
    30   1      10.087003068504629      19.086279166836306       1.768088659638233
    31   1      12.658795031265386      22.148531598387081 -9.7572166998006071e-07
    32   1      11.368917015248263      24.340808912162515 -1.0024140399491215e-06
    33   1      13.086713376296483      23.898369918233129      1.7680886531080284
    34   1      10.936392847160842      22.593777514112389      1.7680886801638327
    35   1      8.0013427871542575      17.771515693501186      1.7680886172729162
    36   1      8.3802940831399848       19.49491570224464 -9.9517778690204934e-07
    37   1      8.7932675692527944      21.266899751555826      1.7680886839111936
    38   1      9.2204633366124966      23.028312623600499 -9.7957917461608196e-07
    39   1      9.6511646278500951      24.781588411018788      1.7680886449121818
    40   1      7.5086255339266428       23.46088633246984      1.7680886666038471
    41   1     0.27752850257757489      16.167626750400416      1.7680886047258044
    42   1       7.569649816200541       16.16762690800752 -1.0654527060449281e-06
    43   1       13.94671835444216      10.053466540768255 -1.3513819252082353e-06
    44   1       13.10594565526938      13.457670776906326 -1.2802560090301982e-06
    45   1      13.483755837168808      11.761874998314795      1.7680883249651056
    46   1      12.723776085749467      15.000000446295076       1.768088449139321
    47   1      11.368919387332928       5.659191124839893 -1.2569138715823523e-06
    48   1      13.086715667850681      6.1016300930519378      1.7680883851517353
    49   1      12.658796954881502       7.851468465205798 -1.3256034989632063e-06
    50   1      10.505737388434721       9.154910324817223 -1.3428543297997489e-06
    51   1      12.220601843512929      9.5894486773765379      1.7680883119544821
    52   1      10.936394850741886      7.4062225416949872      1.7680883441154323
    53   1      11.770504984682789      11.347277677012357 -1.3422338620878029e-06
    54   1      9.6821478024955763      12.766863612499066 -1.3410778145462905e-06
    55   1      11.269894575007831      13.121354453176366      1.7680883389225455
    56   1      10.087004273161325      10.913720928050992      1.7680883028191878
    57   1       10.93601845830098       15.00000003722559 -1.2153826560328386e-06
    58   1      9.1222754106919126      15.000000513407144      1.7680884307880345
    59   1      9.6511670644856675      5.2184115889812119      1.7680884256071112
    60   1      9.2204653876633245      6.9716873830914921  -1.302373885138538e-06
    61   1      7.0840306808255615       8.300912544188364 -1.3459831035973676e-06
    62   1      8.7932692372456618      8.7331001886803676      1.7680883115497128
    63   1      7.5086276617790055      6.5391136258594003      1.7680883651399284
    64   1      8.3802953462384604      10.505084341491056 -1.3633444499267842e-06
    65   1      6.1916347451090248      11.761874900954297 -1.3505921159623638e-06
    66   1      8.0013438017287459      12.228484389463006      1.7680882919498611
    67   1       6.654597218865729      10.053466598654211      1.7680882889489804
    68   1      7.5696503608646628      13.832373599417707 -1.3653985210932947e-06
    69   1      5.4316548593621352      14.999999488827626 -1.2107496023434351e-06
    70   1      5.8138243866271413       13.45767106627423      1.7680883665701252
    71   1      5.7945944748459732      6.1016300757172814 -1.2751228897396675e-06
    72   1      3.6442736973609033      7.4062225637006804 -1.3324398619738626e-06
    73   1      5.3666757619604377      7.8514684833964736      1.7680883114277042
    74   1       4.076798248349097      5.6591911252897376      1.7680884062636832
    75   1      4.9284806645667523      9.5894487685490901 -1.3734508965560166e-06
    76   1      2.7948830192495757      10.913720793582144 -1.3799121765273879e-06
    77   1      4.4783838842974957      11.347277554512118      1.7680882844776868
    78   1      3.2136161764501838      9.1549104201552893      1.7680882848443404
    79   1      3.9777737473344725       13.12135473693769 -1.3332082763359643e-06
    80   1      1.8301542041275412      15.000000223624795 -1.2030210669857328e-06
    81   1      3.6438972300937724      14.999999909527844      1.7680884518706184
    82   1      2.3900263808157933      12.766863598703338      1.7680883005829533
    83   1      2.3590459349559127      5.2184116269693419 -1.2272518198237604e-06
    84   1     0.21650653835217448      6.5391136430889958 -1.2929389110128189e-06
    85   1      1.9283442751079063      6.9716874016479551      1.7680883436253536
    86   1      1.5011480531298951      8.7331002542733245 -1.3609137732659347e-06
    87   1      1.0881741237681362      10.505084321881611       1.768088283990924
    88   1      14.376151875086094      8.3009125487809428      1.7680883148547863
    89   1     0.70922252807624264       12.22848445193992 -1.3584137838944184e-06
    90   1     0.27752934467666851      13.832373408157849      1.7680883114482429
    91   1      6.1916335941657215      18.238125154717579      3.5361782711975498
    92   1      5.8138236863192576      16.542329598761654      5.3042678455249517
    93   1      7.0840289132754748      21.699087424633944      3.5361783390842891
    94   1      6.6545958015772895       19.94653351873734       5.304267975929843
    95   1      3.9777726328681546      16.878645555074939      3.5361782526855907
    96   1      2.7948819097698823      19.086279015790439      3.5361783289455553
    97   1       4.478382648897445      18.652722400323682      5.3042679619412612
    98   1      2.3900259067855942      17.233136365829893      5.3042679401130055
    99   1      4.9284791435591844      20.410551358888796      3.5361783360705616
   100   1       3.644271694766426      22.593777399523162      3.5361783317776725
   101   1      5.3666738835738084      22.148531493495284      5.3042679894159805
   102   1      3.2136145796244904      20.845089657893368      5.3042679971472477
   103   1      5.7945922367856069       23.89836986390938      3.5361783139354577
   104   1      4.0767958883003734      24.340808806264988      5.3042679533882016
   105   1       13.10594478253079      16.542329331788693      3.5361781877068026
   106   1     0.70922161020752639      17.771515804389793      3.5361782908892905
   107   1       13.94671693110419      19.946533518296178      3.5361783259890918
   108   1      1.0881728261522121      19.494915698295955      5.3042679833696802
   109   1       13.48375478011925      18.238125266926346      5.3042679286797787
   110   1      1.5011463563786258       21.26689976763285      3.5361783414294736
   111   1     0.21650433457326249      23.460886314245471      3.5361783152343595
   112   1      1.9283421677986143      23.028312541788409      5.3042679773730184
   113   1      14.376150072495969      21.699087474369207      5.3042679926723544
   114   1      2.3590434886320617      24.781588300092579      3.5361782817582905
   115   1       9.682146863027981      17.233136293258951      3.5361782630674883
   116   1      11.269894164628788      16.878645218977738      5.3042678917277346
   117   1      11.770503856802957      18.652722538421159      3.5361782994153641
   118   1      10.505735750587474      20.845089675114053       3.536178343808019
   119   1      12.220600295948316      20.410551374520082      5.3042679913745756
   120   1      10.087003068504629      19.086279166836306      5.3042679735275655
   121   1      12.658795031265386      22.148531598387081      3.5361783381676632
   122   1      11.368917015248263      24.340808912162515      3.5361783114752936
   123   1      13.086713376296483      23.898369918233129      5.3042679669973625
   124   1      10.936392847160842      22.593777514112389      5.3042679940531663
   125   1      8.0013427871542575      17.771515693501186      5.3042679311622498
   126   1      8.3802940831399848       19.49491570224464      3.5361783187115456
   127   1      8.7932675692527944      21.266899751555826      5.3042679978005269
   128   1      9.2204633366124966      23.028312623600499      3.5361783343101583
   129   1      9.6511646278500951      24.781588411018788      5.3042679588015149
   130   1      7.5086255339266428       23.46088633246984      5.3042679804931803
   131   1     0.27752850257757489      16.167626750400416       5.304267918615138
   132   1       7.569649816200541       16.16762690800752      3.5361782484366269
   133   1       13.94671835444216      10.053466540768255      3.5361779625074083
   134   1       13.10594565526938      13.457670776906326      3.5361780336333246
   135   1      13.483755837168808      11.761874998314795      5.3042676388544381
   136   1      12.723776085749467      15.000000446295076      5.3042677630286548
   137   1      11.368919387332928       5.659191124839893      3.5361780569754617
   138   1      13.086715667850681      6.1016300930519378      5.3042676990410698
   139   1      12.658796954881502       7.851468465205798       3.536177988285834
   140   1      10.505737388434721       9.154910324817223       3.536177971035003
   141   1      12.220601843512929      9.5894486773765379      5.3042676258438171
   142   1      10.936394850741886      7.4062225416949872      5.3042676580047656
   143   1      11.770504984682789      11.347277677012357      3.5361779716554711
   144   1      9.6821478024955763      12.766863612499066      3.5361779728115188
   145   1      11.269894575007831      13.121354453176366      5.3042676528118786
   146   1      10.087004273161325      10.913720928050992      5.3042676167085219
   147   1       10.93601845830098       15.00000003722559      3.5361780985066775
   148   1      9.1222754106919126      15.000000513407144      5.3042677446773681
   149   1      9.6511670644856675      5.2184115889812119      5.3042677394964448
   150   1      9.2204653876633245      6.9716873830914921      3.5361780115154486
   151   1      7.0840306808255615       8.300912544188364      3.5361779679062293
   152   1      8.7932692372456618      8.7331001886803676      5.3042676254390466
   153   1      7.5086276617790055      6.5391136258594003      5.3042676790292607
   154   1      8.3802953462384604      10.505084341491056      3.5361779505448832
   155   1      6.1916347451090248      11.761874900954297      3.5361779632972183
   156   1      8.0013438017287459      12.228484389463006      5.3042676058391951
   157   1       6.654597218865729      10.053466598654211      5.3042676028383147
   158   1      7.5696503608646628      13.832373599417707      3.5361779484908125
   159   1      5.4316548593621352      14.999999488827626      3.5361781031397315
   160   1      5.8138243866271413       13.45767106627423      5.3042676804594588
   161   1      5.7945944748459732      6.1016300757172814      3.5361780387664439
   162   1      3.6442736973609033      7.4062225637006804      3.5361779814494714
   163   1      5.3666757619604377      7.8514684833964736      5.3042676253170367
   164   1       4.076798248349097      5.6591911252897376      5.3042677201530175
   165   1      4.9284806645667523      9.5894487685490901      3.5361779404384373
   166   1      2.7948830192495757      10.913720793582144      3.5361779339771569
   167   1      4.4783838842974957      11.347277554512118      5.3042675983670211
   168   1      3.2136161764501838      9.1549104201552893      5.3042675987336745
   169   1      3.9777737473344725       13.12135473693769       3.536177980681058
   170   1      1.8301542041275412      15.000000223624795      3.5361781108682666
   171   1      3.6438972300937724      14.999999909527844      5.3042677657599526
   172   1      2.3900263808157933      12.766863598703338      5.3042676144722876
   173   1      2.3590459349559127      5.2184116269693419      3.5361780866375137
   174   1     0.21650653835217448      6.5391136430889958      3.5361780209504228
   175   1      1.9283442751079063      6.9716874016479551      5.3042676575146883
   176   1      1.5011480531298951      8.7331002542733245      3.5361779529755606
   177   1      1.0881741237681362      10.505084321881611      5.3042675978802585
   178   1      14.376151875086094      8.3009125487809428      5.3042676287441202
   179   1     0.70922252807624264       12.22848445193992      3.5361779554755493
   180   1     0.27752934467666851      13.832373408157849      5.3042676253375758
