(written by ASE)

228 atoms
1 atom types

0.0       17.68089656944667  xlo xhi
0.0                      30  ylo yhi
0.0      7.0723586277786685  zlo zhi

Atoms # atomic

     1   1      1.6234255969583982      16.152969136948357      1.7680978209344067
     2   1     0.17292859237007488      13.250546708410084   8.876317180659976e-06
     3   1      14.286532019888297      15.000000043335305      1.7680982178229852
     4   1       15.46043221009929      13.688251875370085  8.6759816545785313e-06
     5   1      12.959123007338452      13.740758200448937  8.6739256912564123e-06
     6   1      16.910734575707711      15.000000028942111      1.7680981691373781
     7   1      16.512018119120963      17.805922232083162      1.7680978247173418
     8   1     0.17292714425949274       16.74945383797035  8.3594019767867525e-06
     9   1      15.460430951117839      16.311748381817154  8.3793645013575661e-06
    10   1      1.2480436820380543      18.497375565867088       1.768097647856635
    11   1     0.90907718965183204      20.942405579539013      1.7680974432414955
    12   1      17.529547141239348      19.377278156421937  8.0190031938896877e-06
    13   1      9.0133769463178659      13.250546740822244      1.7680985923230759
    14   1      11.746539777224895      15.000000253296633      1.7680983389329965
    15   1      11.539672638105431       17.46116643467434      1.7680979379511139
    16   1      12.959121600710835       16.25924180505487  8.3476649439341665e-06
    17   1      10.463874011637412      16.152968961705298  8.2443907441616102e-06
    18   1      14.051395798934593      17.570422945602132       1.768097919083808
    19   1      13.680398907505465      20.126757017818676      1.7680976130207691
    20   1      15.102763679670707      18.951346801561442  8.0861345267391985e-06
    21   1      12.616525515192542      18.770689908512082  8.0510746630787927e-06
    22   1      16.144092610582373      20.424760116626402      1.7680975470082654
    23   1      15.784981683429226      22.998689326743147      1.7680972526239382
    24   1      17.186725290702789      21.938377076694962  7.7161917719034926e-06
    25   1      14.734875694546716      21.537071458832912  7.7766964065087961e-06
    26   1     0.56538867423332106      23.436137870831288      1.7680971810335493
    27   1      1.6326890577399591      24.883250903561361   7.375026714032813e-06
    28   1      16.837727173402044      24.480066759427274  7.4100726158783451e-06
    29   1      4.1186746324731178      13.740758274152981      1.7680983208662717
    30   1      6.6199839414789849      13.688251937075179      1.7680984132370363
    31   1      6.6199826744718342      16.311748459635083      1.7680981121690291
    32   1      8.0702863069260928      15.000000092213853  8.6200724187471114e-06
    33   1       5.446083757160296      15.000000135827605   8.637363185534617e-06
    34   1       9.013375365071445       16.74945394268542      1.7680980434172548
    35   1      8.6890989543657895      19.377278158652018      1.7680977290636903
    36   1      10.088491862163623      18.497375819659027   8.050786093065991e-06
    37   1      7.6715698634997791      17.805922293500885   8.259947022687341e-06
    38   1      11.175020355335093      19.904454310993486       1.768097622865991
    39   1      10.824268834373886      22.382093989723899       1.768097350568083
    40   1      12.251458935351197      21.277450445120792  7.7909722734628748e-06
    41   1      9.7495255538178238      20.942405454079108  7.8418298943419153e-06
    42   1      13.316449769276664      22.670918081477879      1.7680973073266999
    43   1      12.957715984873015      25.208179209501822      1.7680970101465521
    44   1      14.374228051215633      24.097127421832141  7.4738358995567465e-06
    45   1      11.894126004991351      23.791392988659567  7.5222537946521144e-06
    46   1      2.9060915084349763      14.999999948947249  8.7130533484449458e-06
    47   1      4.1186734333505912      16.259241874890364      1.7680980085186546
    48   1      3.7760771570412999      18.770689902436175      1.7680977090221781
    49   1      5.2109474955692363      17.570422969888341  8.3358398731027417e-06
    50   1      2.6992243003469643      17.461166685919324  8.3098290980004268e-06
    51   1      6.2623153869655175      18.951346873245569      1.7680978061828618
    52   1      5.8944274117439486      21.537071466039293      1.7680975026778292
    53   1      7.3036443002730307       20.42476016650258  7.9779399092614089e-06
    54   1      4.8399506202690059      20.126757073452978  8.0159591507443279e-06
    55   1      8.3462769909439274      21.938377112566485      1.7680974430382657
    56   1      7.9972789225752559      24.480066720346287      1.7680971487404562
    57   1      9.4058369667022301      23.436137912197239   7.587212732878402e-06
    58   1      6.9445334253714543      22.998689308885901  7.6818623425409771e-06
    59   1      10.473137360493563      24.883250906910035      1.7680970690758164
    60   1      2.3345721135633539      19.904454213382195  7.9610588545979874e-06
    61   1      3.4110106506108124      21.277450465166311      1.7680974560285825
    62   1      3.0536776871453482      23.791392980286247      1.7680971808615382
    63   1      4.4760014632155292      22.670918071747394  7.7004354192490529e-06
    64   1      1.9838204945067943      22.382094022106884  7.6742303458774647e-06
    65   1      5.5337797603632524      24.097127398057722      1.7680971976996878
    66   1      4.1172676893331737      25.208179178602165   7.386605598557705e-06
    67   1      1.6234272550280291      13.847030523460575      1.7680982930901146
    68   1      10.463875396078601      13.847030355912963  8.7545991770057453e-06
    69   1      17.529549905933475      10.622721985541077  8.9961848211501648e-06
    70   1      16.512020349224237      12.194077938311025      1.7680984548626588
    71   1      16.837731525430193      5.5199332687167413  9.1422324650988791e-06
    72   1      17.186728817313572      8.0616229165672877   9.093190625947601e-06
    73   1      14.734879153062638      8.4629286330534512  9.0791088573787578e-06
    74   1      16.144095695305825         9.5752399515533      1.7680986576203639
    75   1      15.784985610268949      7.0013107385874918      1.7680987759105189
    76   1      15.102766310622066      11.048653306452991  8.9158061522641859e-06
    77   1      12.616527945425982      11.229310105108453  8.9461665312109881e-06
    78   1      14.051397825906978      12.429577185996337      1.7680985015006065
    79   1      13.680401937921749      9.8732429672474353      1.7680987037186264
    80   1      2.6992263674365802      12.538833273957636  8.9756708098365058e-06
    81   1      14.374232288993252      5.9028726459917777  9.1576914687258568e-06
    82   1      11.894130100117746      6.2086069930118128  9.1954130036675923e-06
    83   1      13.316453554214554      7.3290819643430041      1.7680988091231737
    84   1      12.957720548180845       4.791820833089389      1.7680988488786007
    85   1      12.251462323902963      8.7225494617644159  9.1177465119935085e-06
    86   1      9.7495286753320478      9.0575942347246183  9.1431104311951522e-06
    87   1      11.175023292923864      10.095545682297143      1.7680987705552271
    88   1      10.824272467917437       7.617905817420322      1.7680988525211578
    89   1      10.088494385020287      11.502624099869465  9.0059666529114748e-06
    90   1       7.671572030294608      12.194077947708251  8.9071254864415449e-06
    91   1      8.6891015249220018      10.622721942481917       1.768098739595366
    92   1      10.473141791733706      5.1167490407805332      1.7680988874087835
    93   1      9.4058409617845289      6.5638620298618946  9.2207792539506072e-06
    94   1      6.9445372919938251      7.0013107075473471   9.199767905987307e-06
    95   1       8.346280551609242      8.0616229264639685      1.7680988427624706
    96   1      7.9972832062970829      5.5199332349396855      1.7680988915449025
    97   1      7.3036474374372924      9.5752399609484371  9.0971106405443603e-06
    98   1      4.8399536579244185      9.8732430122101675  9.0692641918066159e-06
    99   1      6.2623180311543321      11.048653344807633      1.7680986290606799
   100   1      5.8944308616782903      8.4629286190104267      1.7680987803549244
   101   1       5.210949568954109      12.429577203665119  8.9021870521024928e-06
   102   1      11.539674597346918      12.538833012898593      1.7680986445911624
   103   1      3.7760797380543329      11.229310102382385      1.7680985628139647
   104   1      4.1172722531908974      4.7918207904981784  9.1827586987870599e-06
   105   1      5.5337839953577381      5.9028726177100594       1.768098852393768
   106   1      4.4760052758583324      7.3290819479647098  9.1585938845053256e-06
   107   1      1.9838242276259617      7.6179058561635742  9.1264060300653626e-06
   108   1      3.4110140333263645      8.7225494839421174      1.7680987298676407
   109   1       3.053681828819379      6.2086069725627624      1.7680988068276302
   110   1      2.3345749677774186      10.095545598166552   9.058073942878066e-06
   111   1      1.2480459973820399      11.502623869862248       1.768098559577161
   112   1     0.90908046354768424       9.057594381890695      1.7680987007176892
   113   1      1.6326935097424804      5.1167490173301644  9.1514293320888769e-06
   114   1     0.56539267780822133       6.563861992461355      1.7680987808369857
   115   1      1.6234255969583982      16.152969136948357      5.3042771348237396
   116   1     0.17292859237007488      13.250546708410084      3.5361881902065142
   117   1      14.286532019888297      15.000000043335305      5.3042775317123176
   118   1       15.46043221009929      13.688251875370085      3.5361879898709887
   119   1      12.959123007338452      13.740758200448937      3.5361879878150244
   120   1      16.910734575707711      15.000000028942111       5.304277483026711
   121   1      16.512018119120963      17.805922232083162      5.3042771386066754
   122   1     0.17292714425949274       16.74945383797035      3.5361876732913102
   123   1      15.460430951117839      16.311748381817154      3.5361876932538352
   124   1      1.2480436820380543      18.497375565867088      5.3042769617459697
   125   1     0.90907718965183204      20.942405579539013      5.3042767571308289
   126   1      17.529547141239348      19.377278156421937      3.5361873328925273
   127   1      9.0133769463178659      13.250546740822244       5.304277906212409
   128   1      11.746539777224895      15.000000253296633      5.3042776528223303
   129   1      11.539672638105431       17.46116643467434      5.3042772518404462
   130   1      12.959121600710835       16.25924180505487      3.5361876615542776
   131   1      10.463874011637412      16.152968961705298      3.5361875582800781
   132   1      14.051395798934593      17.570422945602132      5.3042772329731411
   133   1      13.680398907505465      20.126757017818676      5.3042769269101022
   134   1      15.102763679670707      18.951346801561442      3.5361874000238607
   135   1      12.616525515192542      18.770689908512082      3.5361873649639968
   136   1      16.144092610582373      20.424760116626402      5.3042768608975992
   137   1      15.784981683429226      22.998689326743147      5.3042765665132707
   138   1      17.186725290702789      21.938377076694962      3.5361870300811056
   139   1      14.734875694546716      21.537071458832912      3.5361870905857402
   140   1     0.56538867423332106      23.436137870831288      5.3042764949228829
   141   1      1.6326890577399591      24.883250903561361      3.5361866889160476
   142   1      16.837727173402044      24.480066759427274      3.5361867239619493
   143   1      4.1186746324731178      13.740758274152981      5.3042776347556062
   144   1      6.6199839414789849      13.688251937075179      5.3042777271263706
   145   1      6.6199826744718342      16.311748459635083      5.3042774260583636
   146   1      8.0702863069260928      15.000000092213853      3.5361879339617523
   147   1       5.446083757160296      15.000000135827605      3.5361879512525194
   148   1       9.013375365071445       16.74945394268542      5.3042773573065869
   149   1      8.6890989543657895      19.377278158652018      5.3042770429530233
   150   1      10.088491862163623      18.497375819659027      3.5361873646754263
   151   1      7.6715698634997791      17.805922293500885      3.5361875738363562
   152   1      11.175020355335093      19.904454310993486      5.3042769367553255
   153   1      10.824268834373886      22.382093989723899      5.3042766644574169
   154   1      12.251458935351197      21.277450445120792      3.5361871048616069
   155   1      9.7495255538178238      20.942405454079108      3.5361871557192281
   156   1      13.316449769276664      22.670918081477879       5.304276621216033
   157   1      12.957715984873015      25.208179209501822      5.3042763240358868
   158   1      14.374228051215633      24.097127421832141      3.5361867877252333
   159   1      11.894126004991351      23.791392988659567      3.5361868361431283
   160   1      2.9060915084349763      14.999999948947249      3.5361880269426824
   161   1      4.1186734333505912      16.259241874890364      5.3042773224079882
   162   1      3.7760771570412999      18.770689902436175      5.3042770229115117
   163   1      5.2109474955692363      17.570422969888341      3.5361876497292068
   164   1      2.6992243003469643      17.461166685919324      3.5361876237184315
   165   1      6.2623153869655175      18.951346873245569      5.3042771200721948
   166   1      5.8944274117439486      21.537071466039293      5.3042768165671621
   167   1      7.3036443002730307       20.42476016650258      3.5361872918292434
   168   1      4.8399506202690059      20.126757073452978      3.5361873298484841
   169   1      8.3462769909439274      21.938377112566485      5.3042767569275986
   170   1      7.9972789225752559      24.480066720346287      5.3042764626297894
   171   1      9.4058369667022301      23.436137912197239       3.536186901102067
   172   1      6.9445334253714543      22.998689308885901      3.5361869957516765
   173   1      10.473137360493563      24.883250906910035        5.30427638296515
   174   1      2.3345721135633539      19.904454213382195      3.5361872749481882
   175   1      3.4110106506108124      21.277450465166311      5.3042767699179167
   176   1      3.0536776871453482      23.791392980286247       5.304276494750872
   177   1      4.4760014632155292      22.670918071747394      3.5361870143247525
   178   1      1.9838204945067943      22.382094022106884      3.5361869881196797
   179   1      5.5337797603632524      24.097127398057722      5.3042765115890207
   180   1      4.1172676893331737      25.208179178602165      3.5361867004949321
   181   1      1.6234272550280291      13.847030523460575      5.3042776069794488
   182   1      10.463875396078601      13.847030355912963       3.536188068488511
   183   1      17.529549905933475      10.622721985541077      3.5361883100741549
   184   1      16.512020349224237      12.194077938311025      5.3042777687519918
   185   1      16.837731525430193      5.5199332687167413      3.5361884561217987
   186   1      17.186728817313572      8.0616229165672877      3.5361884070799596
   187   1      14.734879153062638      8.4629286330534512       3.536188392998191
   188   1      16.144095695305825         9.5752399515533      5.3042779715096966
   189   1      15.784985610268949      7.0013107385874918       5.304278089799852
   190   1      15.102766310622066      11.048653306452991      3.5361882296954863
   191   1      12.616527945425982      11.229310105108453       3.536188260055865
   192   1      14.051397825906978      12.429577185996337      5.3042778153899404
   193   1      13.680401937921749      9.8732429672474353      5.3042780176079596
   194   1      2.6992263674365802      12.538833273957636      3.5361882895601435
   195   1      14.374232288993252      5.9028726459917777      3.5361884715808021
   196   1      11.894130100117746      6.2086069930118128      3.5361885093023377
   197   1      13.316453554214554      7.3290819643430041      5.3042781230125069
   198   1      12.957720548180845       4.791820833089389      5.3042781627679334
   199   1      12.251462323902963      8.7225494617644159      3.5361884316358458
   200   1      9.7495286753320478      9.0575942347246183      3.5361884569997644
   201   1      11.175023292923864      10.095545682297143      5.3042780844445616
   202   1      10.824272467917437       7.617905817420322      5.3042781664104917
   203   1      10.088494385020287      11.502624099869465      3.5361883198559867
   204   1       7.671572030294608      12.194077947708251      3.5361882210148203
   205   1      8.6891015249220018      10.622721942481917      5.3042780534846994
   206   1      10.473141791733706      5.1167490407805332      5.3042782012981169
   207   1      9.4058409617845289      6.5638620298618946      3.5361885346685873
   208   1      6.9445372919938251      7.0013107075473471        3.53618851365724
   209   1       8.346280551609242      8.0616229264639685      5.3042781566518045
   210   1      7.9972832062970829      5.5199332349396855      5.3042782054342359
   211   1      7.3036474374372924      9.5752399609484371      3.5361884109999746
   212   1      4.8399536579244185      9.8732430122101675      3.5361883831535259
   213   1      6.2623180311543321      11.048653344807633      5.3042779429500149
   214   1      5.8944308616782903      8.4629286190104267      5.3042780942442578
   215   1       5.210949568954109      12.429577203665119      3.5361882160763858
   216   1      11.539674597346918      12.538833012898593      5.3042779584804949
   217   1      3.7760797380543329      11.229310102382385      5.3042778767032992
   218   1      4.1172722531908974      4.7918207904981784      3.5361884966480321
   219   1      5.5337839953577381      5.9028726177100594      5.3042781662831011
   220   1      4.4760052758583324      7.3290819479647098      3.5361884724832184
   221   1      1.9838242276259617      7.6179058561635742      3.5361884402953638
   222   1      3.4110140333263645      8.7225494839421174      5.3042780437569732
   223   1       3.053681828819379      6.2086069725627624      5.3042781207169645
   224   1      2.3345749677774186      10.095545598166552      3.5361883719632767
   225   1      1.2480459973820399      11.502623869862248      5.3042778734664937
   226   1     0.90908046354768424       9.057594381890695      5.3042780146070232
   227   1      1.6326935097424804      5.1167490173301644      3.5361884653186659
   228   1     0.56539267780822133       6.563861992461355      5.3042780947263202
