(written by ASE)

100 atoms
1 atom types

0.0      7.9114520242947819  xlo xhi
0.0                      30  ylo yhi
0.0      7.0723586277786685  zlo zhi

Atoms # atomic

     1   1     0.17863612705987938      18.437649615289629      1.7680895246379893
     2   1      7.3067675577880413      16.625336570384945      3.5361792495745683
     3   1      3.3510415412514307      16.625336564152917      1.7680895934718963
     4   1       4.916158403755678      16.160094772443713      3.5361792418143816
     5   1      5.7656612757424801      17.593729403157695      1.7680895546159263
     6   1      4.9489492998906899       20.01396739494696      1.7680894953114572
     7   1      6.5302409587114267      19.173520099084101       3.536179168501933
     8   1      4.1343621444882563      18.437649610594832       3.536179184235948
     9   1      7.3130205710542011      20.827102325329321      1.7680894697506118
    10   1      6.5253886116425663      23.245147665233688      1.7680894018750242
    11   1     0.19807042790988336      22.436722353343555      3.5361790871703573
    12   1      5.7364806895020539      21.620526573501394      3.5361791017366691
    13   1      7.3176195961132464      24.860702645120568      3.5361790241088973
    14   1     0.96043239826976823      16.160094767226354      1.7680895837611106
    15   1      1.8099352620531863      17.593729396127088       3.536179211955806
    16   1      2.5745149459586321      19.173520098555542      1.7680895129597516
    17   1      1.7807546775219247      21.620526586738734       1.768089442476336
    18   1       3.357294561981524      20.827102318939367      3.5361791246301379
    19   1     0.99322328377351699      20.013967394032562      3.5361791511444904
    20   1      4.1537964349190313      22.436722349183924      1.7680894262995928
    21   1      3.3618935893702497      24.860702633553359      1.7680893699697304
    22   1       4.944417951855816      24.050598616783816      3.5361790452994359
    23   1      2.5696625986727488      23.245147665812908      3.5361790630446519
    24   1      0.9886919434507887       24.05059860730897      1.7680893914440261
    25   1      7.0881572950180853      13.318039086000567   2.074548103081783e-07
    26   1      6.3157256050460546      14.994512939087244      1.7680897156509587
    27   1      7.0968347802536327      5.1392973548794316    2.51752621472896e-07
    28   1      5.5151588433763488      8.3777615011655371   2.269276498620991e-07
    29   1      7.0931798540172757      9.1736933218711982       1.768089894044663
    30   1      6.3048005644725871      6.7547936668876218      1.7680899041625975
    31   1      6.3074371343338287      10.819476025628617  2.3830990813300514e-07
    32   1      3.9178395208992769      11.567440985283824  2.3586090567237581e-07
    33   1       5.539716961912986      12.416819923574522      1.7680898868061643
    34   1      4.7280387431697495       9.988576729332209      1.7680898983590454
    35   1       4.691976978311625      13.870579763099002  2.3922250301440186e-07
    36   1       2.359999587761306       14.99451293303963  6.3612777493709591e-08
    37   1      3.1324312913395351      13.318039087235931      1.7680898667164593
    38   1      4.7235006609640848      5.9489277671390681   2.438935953047711e-07
    39   1      2.3490745504574386      6.7547936778948809  2.4702622753352459e-07
    40   1      3.9329880172103886      7.5638006448933623      1.7680898976747399
    41   1      3.1411087632982078      5.1392973617035409      1.7680899091653797
    42   1      3.1374538453048046       9.173693327520084  2.3631583863733017e-07
    43   1     0.77231273394990396      9.9885767293011867  2.4415510365650682e-07
    44   1      2.3517111230795571      10.819476021258552      1.7680898934310152
    45   1      1.5594328338352099      8.3777614983716262      1.7680898910883831
    46   1      1.5839909404788024      12.416819919071372   2.298884825127353e-07
    47   1     0.73625096767971843      13.870579760610013      1.7680898974278942
    48   1      7.8735655348875904       11.56744098883334      1.7680898903294822
    49   1     0.76777464460690237      5.9489277599302426      1.7680899007136481
    50   1      7.8887140290823776      7.5638006403337954  2.3695301159998793e-07
    51   1     0.17863612705987938      18.437649615289629      5.3042688385273236
    52   1      7.3067675577880413      16.625336570384945 -6.4314766325673318e-08
    53   1      3.3510415412514307      16.625336564152917       5.304268907361231
    54   1       4.916158403755678      16.160094772443713 -7.2074953085428782e-08
    55   1      5.7656612757424801      17.593729403157695      5.3042688685052592
    56   1      4.9489492998906899       20.01396739494696      5.3042688092007912
    57   1      6.5302409587114267      19.173520099084101 -1.4538740151160782e-07
    58   1      4.1343621444882563      18.437649610594832 -1.2965338562327334e-07
    59   1      7.3130205710542011      20.827102325329321      5.3042687836399462
    60   1      6.5253886116425663      23.245147665233688      5.3042687157643567
    61   1     0.19807042790988336      22.436722353343555 -2.2671897652445609e-07
    62   1      5.7364806895020539      21.620526573501394 -2.1215266628156597e-07
    63   1      7.3176195961132464      24.860702645120568 -2.8978043629270286e-07
    64   1     0.96043239826976823      16.160094767226354      5.3042688976504442
    65   1      1.8099352620531863      17.593729396127088 -1.0193352840895831e-07
    66   1      2.5745149459586321      19.173520098555542      5.3042688268490856
    67   1      1.7807546775219247      21.620526586738734      5.3042687563656701
    68   1       3.357294561981524      20.827102318939367 -1.8925919486981517e-07
    69   1     0.99322328377351699      20.013967394032562  -1.627448438591051e-07
    70   1      4.1537964349190313      22.436722349183924      5.3042687401889266
    71   1      3.3618935893702497      24.860702633553359      5.3042686838590649
    72   1       4.944417951855816      24.050598616783816 -2.6858989813652064e-07
    73   1      2.5696625986727488      23.245147665812908 -2.5084468206146889e-07
    74   1      0.9886919434507887       24.05059860730897      5.3042687053333593
    75   1      7.0881572950180853      13.318039086000567      3.5361795213441445
    76   1      6.3157256050460546      14.994512939087244      5.3042690295402926
    77   1      7.0968347802536327      5.1392973548794316      3.5361795656419552
    78   1      5.5151588433763488      8.3777615011655371      3.5361795408169838
    79   1      7.0931798540172757      9.1736933218711982      5.3042692079339959
    80   1      6.3048005644725871      6.7547936668876218        5.30426921805193
    81   1      6.3074371343338287      10.819476025628617      3.5361795521992421
    82   1      3.9178395208992769      11.567440985283824      3.5361795497502393
    83   1       5.539716961912986      12.416819923574522      5.3042692006954981
    84   1      4.7280387431697495       9.988576729332209      5.3042692122483794
    85   1       4.691976978311625      13.870579763099002      3.5361795531118365
    86   1       2.359999587761306       14.99451293303963      3.5361793775021115
    87   1      3.1324312913395351      13.318039087235931      5.3042691806057931
    88   1      4.7235006609640848      5.9489277671390681      3.5361795577829289
    89   1      2.3490745504574386      6.7547936778948809      3.5361795609155613
    90   1      3.9329880172103886      7.5638006448933623      5.3042692115640726
    91   1      3.1411087632982078      5.1392973617035409      5.3042692230547122
    92   1      3.1374538453048046       9.173693327520084      3.5361795502051723
    93   1     0.77231273394990396      9.9885767293011867      3.5361795580444371
    94   1      2.3517111230795571      10.819476021258552       5.304269207320349
    95   1      1.5594328338352099      8.3777614983716262      5.3042692049777154
    96   1      1.5839909404788024      12.416819919071372      3.5361795437778163
    97   1     0.73625096767971843      13.870579760610013      5.3042692113172283
    98   1      7.8735655348875904       11.56744098883334      5.3042692042188158
    99   1     0.76777464460690237      5.9489277599302426      5.3042692146029813
   100   1      7.8887140290823776      7.5638006403337954      3.5361795508423448
