(written by ASE)

240 atoms
1 atom types

0.0      19.287828409670595  xlo xhi
0.0                      30  ylo yhi
0.0      7.1646288111473151  zlo zhi

Atoms # atomic

     1   1      6.2413078773423774      17.155052784575844       1.343367905141069
     2   1      5.4090659611432645      14.999999999998295      3.1345251079278449
     3   1      6.9747032603034009      18.693451444785666       3.134525107927896
     4   1      1.7144940565393565      15.000000000000057       1.343367905141019
     5   1      3.9876296208089723      16.166492900014248      1.3433679051410692
     6   1      2.9157832517452835      18.370516406902283      1.3433679051410676
     7   1      4.6128096284212647      17.729018340128135      3.1345251079279031
     8   1      2.2946324556015294      16.587581016610301      3.1345251079278817
     9   1      5.2546477729449279        19.4120024388844      1.3433679051410607
    10   1      4.2697406532715787      21.723415645057116      1.3433679051410383
    11   1      5.9497155458648443      21.031039536020756      3.1345251079278738
    12   1      3.5946408333288509      20.047036849538415      3.1345251079278813
    13   1      6.6210656508657424      22.680828191882199       1.343367905141015
    14   1        5.61813191933485      25.039364354289091      1.3433679051409624
    15   1      4.9489396677778581      23.376190958522358      3.1345251079278325
    16   1       17.64400689649823       16.31247001926863      1.3433679051410332
    17   1      19.242184639732098      15.000000000000512       3.134525107927848
    18   1      16.746844623331327      15.000000000000455      3.1345251079278396
    19   1     0.63554164046690464      17.211287598428811      1.3433679051410568
    20   1       18.94267469594508      19.616601211526586      1.3433679051410503
    21   1      1.2894702111991467      18.957922183475091      3.1345251079278902
    22   1       18.29766138693444      17.898591742262965      3.1345251079278778
    23   1      1.9427863902959448      20.693162576679669      1.3433679051410385
    24   1     0.95230836419316667      23.034263108977683      1.3433679051409988
    25   1      2.6088330841694773      22.382275881182721      3.1345251079278507
    26   1     0.29818410267746337      21.329240825222513      3.1345251079278573
    27   1      3.2788833786949803      24.056590151340231      1.3433679051409928
    28   1      1.6161865131513664      24.721026512727661      3.1345251079278085
    29   1      15.052980165978978      15.000000000000227      1.3433679051410106
    30   1      14.256723833256485      17.729018340128533      1.3433679051410443
    31   1       15.88522208217754      17.155052784576839      3.1345251079278715
    32   1      13.631543825644572      16.166492900015442      3.1345251079278666
    33   1       16.61861746513862       18.69345144478612      1.3433679051410383
    34   1      15.593629750699971      21.031039536021012      1.3433679051410132
    35   1      17.277571704519012      20.311409060127403      3.1345251079278573
    36   1      14.898561977780403      19.412002438884684      3.1345251079278573
    37   1      17.930942213027073      21.992703045187369      1.3433679051410112
    38   1      16.926949264846201      24.357562774134834      1.3433679051409702
    39   1      18.585725939416236      23.688155706275211      3.1345251079278125
    40   1      16.264979855700997      22.680828191882483      3.1345251079278191
    41   1      9.5982704348965324       14.99999999999838      1.3433679051410208
    42   1      11.358408261374814      15.000000000000171      3.1345251079278382
    43   1      11.938546660436279       16.58758101661067      1.3433679051410354
    44   1      10.933384416033942      18.957922183475091      1.3433679051410343
    45   1      12.559697456580331      18.370516406902823      3.1345251079278622
    46   1      10.279455845301889      17.211287598428413      3.1345251079278729
    47   1       13.23855503816362      20.047036849538387      1.3433679051410228
    48   1      12.252747289004505      22.382275881182551      1.3433679051409861
    49   1      13.913654858106561      21.723415645057514      3.1345251079278205
    50   1      11.586700595131099       20.69316257667964      3.1345251079278409
    51   1      14.592853872612913      23.376190958522272      1.3433679051409679
    52   1       15.26204612417032       25.03936435428912      3.1345251079277818
    53   1      12.922797583530219       24.05659015133989      3.1345251079277832
    54   1      7.1029304184953208      14.999999999999261      1.3433679051410192
    55   1      8.0000926916630259      16.312470019267835      3.1345251079278711
    56   1       8.653747182098888      17.898591742262226      1.3433679051410441
    57   1      7.6336574996836912      20.311409060126977      1.3433679051410483
    58   1      9.2987604911097073      19.616601211526302      3.1345251079278578
    59   1      9.9420983075124525      21.329240825221888      1.3433679051410143
    60   1      8.9418117345808898      23.688155706274813      1.3433679051409788
    61   1      10.596222569028422      23.034263108977569       3.134525107927808
    62   1      8.2870280081918484      21.992703045186829      3.1345251079278418
    63   1       11.26010071798653      24.721026512727377      1.3433679051409428
    64   1      7.2830350600107039      24.357562774134379      3.1345251079278049
    65   1       18.29766138693331      12.101408257737233      3.1345251079277623
    66   1       18.94267469594384      10.383398788473528      1.3433679051408702
    67   1      17.644006896497881      13.687529980731654      1.3433679051409799
    68   1      18.585725939415262      6.3118442937245334      3.1345251079276095
    69   1       16.26497985570051       7.319171808116721      3.1345251079276477
    70   1       17.93094221302611      8.0072969548125172      1.3433679051408196
    71   1      16.926949264845003      5.6424372258654358      1.3433679051407799
    72   1      17.277571704518365      9.6885909398729666      3.1345251079276912
    73   1      14.898561977779663      10.587997561115571       3.134525107927725
    74   1      16.618617465137966      11.306548555214761      1.3433679051409084
    75   1      15.593629750699202      8.9689604639793004      1.3433679051408602
    76   1      15.885222082176956      12.844947215424469      3.1345251079277539
    77   1      13.631543825643599      13.833507099984928      3.1345251079277952
    78   1      14.256723833256197      12.270981659872035      1.3433679051409364
    79   1      15.262046124169446      4.9606356457108518       3.134525107927618
    80   1      12.922797583529952      5.9434098486600107      3.1345251079276477
    81   1      14.592853872612343      6.6238090414781823      1.3433679051408149
    82   1      13.913654858105856      8.2765843549423437      3.1345251079276837
    83   1      11.586700595130672      9.3068374233201894      3.1345251079276997
    84   1      13.238555038163225      9.9529631504620397      1.3433679051408829
    85   1      12.252747289004212      7.6177241188180744       1.343367905140836
    86   1      12.559697456579942      11.629483593097717      3.1345251079277507
    87   1      10.279455845301326      12.788712401571388      3.1345251079277743
    88   1      11.938546660436021      13.412418983389699      1.3433679051409697
    89   1      10.933384416033762      11.042077816525222       1.343367905140912
    90   1      11.260100717985706      5.2789734872727365      1.3433679051408134
    91   1      10.596222569027518      6.9657368910227149      3.1345251079276535
    92   1      8.2870280081911591      8.0072969548136541      3.1345251079276588
    93   1      9.9420983075121452      8.6707591747779702      1.3433679051408569
    94   1      8.9418117345798773      6.3118442937254429      1.3433679051408129
    95   1      9.2987604911092507      10.383398788474153      3.1345251079277228
    96   1      6.9747032603025803       11.30654855521351      3.1345251079277165
    97   1      8.6537471820980407       12.10140825773729      1.3433679051409331
    98   1      7.6336574996829896      9.6885909398727392      1.3433679051408638
    99   1      8.0000926916620472      13.687529980730716      3.1345251079278125
   100   1      6.2413078773409687      12.844947215423701      1.3433679051409058
   101   1       7.283035060009853      5.6424372258661322      3.1345251079276202
   102   1      4.9489396677766759      6.6238090414778981       3.134525107927606
   103   1      6.6210656508649084      7.3191718081178578      1.3433679051408027
   104   1      5.6181319193341865      4.9606356457109939       1.343367905140781
   105   1      5.9497155458635174      8.9689604639797551      3.1345251079276539
   106   1       3.594640833327357      9.9529631504610165      3.1345251079276717
   107   1       5.254647772943656      10.587997561115372      1.3433679051408602
   108   1      4.2697406532701079      8.2765843549423153      1.3433679051408007
   109   1      4.6128096284198232      12.270981659870898      3.1345251079277343
   110   1      2.2946324556002362      13.412418983388847      3.1345251079277872
   111   1      3.9876296208079838      13.833507099984161      1.3433679051409362
   112   1      2.9157832517442475      11.629483593097092      1.3433679051408878
   113   1      1.6161865131505599      5.2789734872719691      3.1345251079275891
   114   1      3.2788833786942133      5.9434098486593285      1.3433679051407714
   115   1      2.6088330841683867      7.6177241188170512      3.1345251079276211
   116   1     0.29818410267668949      8.6707591747770039      3.1345251079276464
   117   1      1.9427863902945428      9.3068374233197915      1.3433679051408278
   118   1     0.95230836419219733      6.9657368910218906      1.3433679051407799
   119   1       1.289470211197757      11.042077816524369      3.1345251079277006
   120   1     0.63554164046551309      12.788712401570962      1.3433679051409204
   121   1      6.2413078773423774      17.155052784575844      4.9256823107147261
   122   1      5.4090659611432645      14.999999999998295       6.716839513501502
   123   1      6.9747032603034009      18.693451444785666      6.7168395135015535
   124   1      1.7144940565393565      15.000000000000057      4.9256823107146763
   125   1      3.9876296208089723      16.166492900014248      4.9256823107147261
   126   1      2.9157832517452835      18.370516406902283      4.9256823107147243
   127   1      4.6128096284212647      17.729018340128135      6.7168395135015606
   128   1      2.2946324556015294      16.587581016610301      6.7168395135015402
   129   1      5.2546477729449279        19.4120024388844      4.9256823107147181
   130   1      4.2697406532715787      21.723415645057116      4.9256823107146959
   131   1      5.9497155458648443      21.031039536020756      6.7168395135015313
   132   1      3.5946408333288509      20.047036849538415      6.7168395135015375
   133   1      6.6210656508657424      22.680828191882199      4.9256823107146719
   134   1        5.61813191933485      25.039364354289091      4.9256823107146204
   135   1      4.9489396677778581      23.376190958522358      6.7168395135014904
   136   1       17.64400689649823       16.31247001926863      4.9256823107146888
   137   1      19.242184639732098      15.000000000000512      6.7168395135015038
   138   1      16.746844623331327      15.000000000000455      6.7168395135014958
   139   1     0.63554164046690464      17.211287598428811      4.9256823107147136
   140   1       18.94267469594508      19.616601211526586      4.9256823107147074
   141   1      1.2894702111991467      18.957922183475091      6.7168395135015464
   142   1       18.29766138693444      17.898591742262965       6.716839513501534
   143   1      1.9427863902959448      20.693162576679669      4.9256823107146968
   144   1     0.95230836419316667      23.034263108977683       4.925682310714655
   145   1      2.6088330841694773      22.382275881182721      6.7168395135015082
   146   1     0.29818410267746337      21.329240825222513      6.7168395135015144
   147   1      3.2788833786949803      24.056590151340231      4.9256823107146497
   148   1      1.6161865131513664      24.721026512727661      6.7168395135014665
   149   1      15.052980165978978      15.000000000000227      4.9256823107146683
   150   1      14.256723833256485      17.729018340128533      4.9256823107147021
   151   1       15.88522208217754      17.155052784576839      6.7168395135015286
   152   1      13.631543825644572      16.166492900015442      6.7168395135015242
   153   1       16.61861746513862       18.69345144478612      4.9256823107146959
   154   1      15.593629750699971      21.031039536021012      4.9256823107146701
   155   1      17.277571704519012      20.311409060127403      6.7168395135015153
   156   1      14.898561977780403      19.412002438884684      6.7168395135015144
   157   1      17.930942213027073      21.992703045187369      4.9256823107146683
   158   1      16.926949264846201      24.357562774134834      4.9256823107146284
   159   1      18.585725939416236      23.688155706275211        6.71683951350147
   160   1      16.264979855700997      22.680828191882483      6.7168395135014762
   161   1      9.5982704348965324       14.99999999999838      4.9256823107146781
   162   1      11.358408261374814      15.000000000000171      6.7168395135014949
   163   1      11.938546660436279       16.58758101661067      4.9256823107146923
   164   1      10.933384416033942      18.957922183475091      4.9256823107146905
   165   1      12.559697456580331      18.370516406902823      6.7168395135015189
   166   1      10.279455845301889      17.211287598428413      6.7168395135015286
   167   1       13.23855503816362      20.047036849538387      4.9256823107146799
   168   1      12.252747289004505      22.382275881182551      4.9256823107146435
   169   1      13.913654858106561      21.723415645057514      6.7168395135014771
   170   1      11.586700595131099       20.69316257667964      6.7168395135014984
   171   1      14.592853872612913      23.376190958522272      4.9256823107146248
   172   1       15.26204612417032       25.03936435428912       6.716839513501438
   173   1      12.922797583530219       24.05659015133989      6.7168395135014398
   174   1      7.1029304184953208      14.999999999999261      4.9256823107146763
   175   1      8.0000926916630259      16.312470019267835      6.7168395135015277
   176   1       8.653747182098888      17.898591742262226      4.9256823107147021
   177   1      7.6336574996836912      20.311409060126977      4.9256823107147056
   178   1      9.2987604911097073      19.616601211526302      6.7168395135015153
   179   1      9.9420983075124525      21.329240825221888      4.9256823107146719
   180   1      8.9418117345808898      23.688155706274813      4.9256823107146372
   181   1      10.596222569028422      23.034263108977569      6.7168395135014665
   182   1      8.2870280081918484      21.992703045186829      6.7168395135014993
   183   1       11.26010071798653      24.721026512727377      4.9256823107145982
   184   1      7.2830350600107039      24.357562774134379       6.716839513501462
   185   1       18.29766138693331      12.101408257737233      6.7168395135014185
   186   1       18.94267469594384      10.383398788473528      4.9256823107145271
   187   1      17.644006896497881      13.687529980731654      4.9256823107146372
   188   1      18.585725939415262      6.3118442937245334      6.7168395135012675
   189   1       16.26497985570051       7.319171808116721      6.7168395135013057
   190   1       17.93094221302611      8.0072969548125172      4.9256823107144765
   191   1      16.926949264845003      5.6424372258654358      4.9256823107144365
   192   1      17.277571704518365      9.6885909398729666      6.7168395135013474
   193   1      14.898561977779663      10.587997561115571      6.7168395135013839
   194   1      16.618617465137966      11.306548555214761      4.9256823107145653
   195   1      15.593629750699202      8.9689604639793004      4.9256823107145165
   196   1      15.885222082176956      12.844947215424469      6.7168395135014105
   197   1      13.631543825643599      13.833507099984928      6.7168395135014514
   198   1      14.256723833256197      12.270981659872035      4.9256823107145937
   199   1      15.262046124169446      4.9606356457108518      6.7168395135012755
   200   1      12.922797583529952      5.9434098486600107      6.7168395135013057
   201   1      14.592853872612343      6.6238090414781823       4.925682310714472
   202   1      13.913654858105856      8.2765843549423437      6.7168395135013412
   203   1      11.586700595130672      9.3068374233201894      6.7168395135013554
   204   1      13.238555038163225      9.9529631504620397      4.9256823107145387
   205   1      12.252747289004212      7.6177241188180744      4.9256823107144925
   206   1      12.559697456579942      11.629483593097717      6.7168395135014078
   207   1      10.279455845301326      12.788712401571388      6.7168395135014318
   208   1      11.938546660436021      13.412418983389699      4.9256823107146275
   209   1      10.933384416033762      11.042077816525222      4.9256823107145697
   210   1      11.260100717985706      5.2789734872727365      4.9256823107144712
   211   1      10.596222569027518      6.9657368910227149       6.716839513501311
   212   1      8.2870280081911591      8.0072969548136541      6.7168395135013164
   213   1      9.9420983075121452      8.6707591747779702      4.9256823107145138
   214   1      8.9418117345798773      6.3118442937254429      4.9256823107144712
   215   1      9.2987604911092507      10.383398788474153      6.7168395135013794
   216   1      6.9747032603025803       11.30654855521351      6.7168395135013741
   217   1      8.6537471820980407       12.10140825773729      4.9256823107145902
   218   1      7.6336574996829896      9.6885909398727392      4.9256823107145209
   219   1      8.0000926916620472      13.687529980730716        6.71683951350147
   220   1      6.2413078773409687      12.844947215423701      4.9256823107145626
   221   1       7.283035060009853      5.6424372258661322      6.7168395135012764
   222   1      4.9489396677766759      6.6238090414778981      6.7168395135012631
   223   1      6.6210656508649084      7.3191718081178578      4.9256823107144596
   224   1      5.6181319193341865      4.9606356457109939      4.9256823107144374
   225   1      5.9497155458635174      8.9689604639797551       6.716839513501311
   226   1       3.594640833327357      9.9529631504610165      6.7168395135013279
   227   1       5.254647772943656      10.587997561115372      4.9256823107145165
   228   1      4.2697406532701079      8.2765843549423153      4.9256823107144569
   229   1      4.6128096284198232      12.270981659870898      6.7168395135013927
   230   1      2.2946324556002362      13.412418983388847      6.7168395135014425
   231   1      3.9876296208079838      13.833507099984161      4.9256823107145937
   232   1      2.9157832517442475      11.629483593097092      4.9256823107145458
   233   1      1.6161865131505599      5.2789734872719691      6.7168395135012453
   234   1      3.2788833786942133      5.9434098486593285      4.9256823107144285
   235   1      2.6088330841683867      7.6177241188170512      6.7168395135012773
   236   1     0.29818410267668949      8.6707591747770039      6.7168395135013039
   237   1      1.9427863902945428      9.3068374233197915      4.9256823107144845
   238   1     0.95230836419219733      6.9657368910218906      4.9256823107144365
   239   1       1.289470211197757      11.042077816524369      6.7168395135013554
   240   1     0.63554164046551309      12.788712401570962      4.9256823107145777
