(written by ASE)

224 atoms
1 atom types

0.0      18.265755655538001  xlo xhi
0.0                      30  ylo yhi
0.0      7.1646288111473151  zlo zhi

Atoms # atomic

     1   1      14.725735000509623       16.52723548763845  3.9062403384417223e-08
     2   1      15.373728277907734      19.884441884358893  7.9468643407656957e-08
     3   1       14.99944247698939      18.188161697106523      1.7911573044873679
     4   1      15.728920746496756      21.645714496540421      1.7911572893404104
     5   1      12.630793258507286      14.999999973663421  7.0004519086336797e-08
     6   1      11.058270230893589      16.916076329424868  8.2053266554050206e-08
     7   1      12.787663176119352      16.786169376885937      1.7911572992159337
     8   1      10.785319977640935      14.999999988334196      1.7911572929419004
     9   1      13.191178567311747      18.503563478598807  7.8588091603241712e-08
    10   1      11.843395916239469      20.634875260222742  8.3319526352904203e-08
    11   1      13.590696984206222       20.26737430163837      1.7911572893051544
    12   1      11.463279201203907      18.849042007980898      1.7911572882791473
    13   1      13.968899348967172       22.02194042212534  8.4584640721906346e-08
    14   1      12.560812883993297      24.152639961011573  8.7664413895321024e-08
    15   1      14.322528401113971      23.788352021382224       1.791157290603745
    16   1       12.20404286411228      22.394508228694662      1.7911572884108131
    17   1      8.9446044983341331      14.999999980548637  8.7807819000742245e-08
    18   1      7.7456576448788299      17.788414061133409   8.804307768338203e-08
    19   1      9.4783540996135223      17.287036734879564      1.7911572871714216
    20   1      7.3838354553634398      16.171706673800401      1.7911572795835595
    21   1        9.78509453039932       19.16393852677669  8.3482217262828671e-08
    22   1      8.3507881317647641      21.294604388596611  8.4745640050825048e-08
    23   1       10.09683860050745      20.972972631058184       1.791157286911468
    24   1      8.0334666336618845       19.51092060020099      1.7911572843920316
    25   1      10.442503712849211      22.746458893083542  8.5544671231175356e-08
    26   1      9.0408984252318341      24.864211177410937  8.9300158054560069e-08
    27   1      10.797796929484011       24.51222296929285      1.7911572910895508
    28   1      8.6894703874258887      23.085724534236789      1.7911572890318566
    29   1       3.497915429074625      15.000000000517417  1.0015721088940423e-07
    30   1      5.5928571765858193       16.52723548623635   1.217684016247912e-07
    31   1      4.0583007345619047      18.503563486000075  8.7936102792754375e-08
    32   1      5.8665646556821338      18.188161701528401      1.7911572734051333
    33   1      3.6547853523143123      16.786169377522498      1.7911572784934866
    34   1      6.2408504515532126      19.884441874803059  8.7467329022876137e-08
    35   1      4.8360215129699169      22.021940410185437  8.6117161199916046e-08
    36   1      6.5960429161792051      21.645714481039334      1.7911572866843779
    37   1      4.4578191480999765      20.267374293467668      1.7911572849647004
    38   1      6.9427538665539759      23.429752517121557  8.7511682730201965e-08
    39   1      5.1896505676997258      23.788352005920018      1.7911572910778311
    40   1      5.2503644162882308      14.999999967551418      1.7911572374777169
    41   1      18.077482321211424      15.000000031053304  8.6206341702698934e-08
    42   1      1.6524421450094564      15.000000001620549      1.7911572873167283
    43   1      1.9253923924115282      16.916076341151353  8.5692168979011968e-08
    44   1     0.65221668729327575      19.163938535256619  8.2979725110400952e-08
    45   1      2.3304013546232172      18.849042018101869      1.7911572847768242
    46   1     0.34547625377726898      17.287036737958658      1.7911572864272829
    47   1      2.7105180733154799       20.63487525837192  8.4683939036587889e-08
    48   1      1.3096258799238425      22.746458902267875   8.704844464803355e-08
    49   1      3.0711650269584667      22.394508226255113      1.7911572889767007
    50   1     0.96396076006100107      20.972972637290155      1.7911572875008266
    51   1       3.427935054078127      24.152639956918165  8.9586307358753295e-08
    52   1      1.6649191054114385      24.512222978046111      1.7911572932863087
    53   1       16.51671327329845      16.171706680667796      1.7911572956857904
    54   1      16.878535455899687      17.788414060199074  7.7727204883397254e-08
    55   1      17.166344449736343      19.510920608731084      1.7911572889242169
    56   1      17.483665952275231      21.294604402101925  8.4281664861929794e-08
    57   1      16.075631699947284      23.429752537738381  8.7416129957980683e-08
    58   1      17.822348215733616      23.085724552673753      1.7911572905174806
    59   1      18.173776259915083      24.864211195351572  9.0932804523791531e-08
    60   1      14.383242243517204       14.99999992046898      1.7911573560819685
    61   1      17.483666011236593      8.7053956022558623  8.5941859430135435e-08
    62   1      17.822348274171116      6.9142754574070011      1.7911572860617795
    63   1      16.878535513145977      12.211585930746907  8.3927258806941916e-08
    64   1      17.166344500994857      10.489079400417154      1.7911572939105074
    65   1       16.51671328361018      13.828293352572885      1.7911573015182962
    66   1      16.075631754770477      6.5702474756909908  8.1294571626734706e-08
    67   1      13.968899398122391      7.9780595827928522  8.3328518468038805e-08
    68   1      15.728920800120928      8.3542855100596256      1.7911572893616596
    69   1      14.322528455044017      6.2116479895200598      1.7911572829819635
    70   1      15.373728327259434      10.115558128446594  8.3191143187085685e-08
    71   1      13.191178609215585      11.496436496543737  8.3055602172542595e-08
    72   1      14.999442524314862        11.8118382851234      1.7911573085111667
    73   1      13.590697029577237      9.7326257086441927      1.7911572921595547
    74   1      14.725735015574243      13.472764569225617  4.1802220385290363e-08
    75   1      12.787663241368382      13.213830663892068      1.7911573027179362
    76   1      12.560812939820623      5.8473600417779892  7.8502289000313561e-08
    77   1      10.442503760598015      7.2535410960392426  8.2355406743056095e-08
    78   1      12.204042909879744      7.6054917692845265      1.7911572861191378
    79   1      10.797796989138478      5.4877770223853872      1.7911572805426814
    80   1      11.843395951814689      9.3651247424164978  8.5710119207652906e-08
    81   1      9.7850945571447703      10.836061464261249  8.8573649716202058e-08
    82   1      11.463279210688736      11.150957958065177      1.7911572931309949
    83   1      10.096838638972278      9.0270273629981119       1.791157288975777
    84   1      11.058270241236531      13.083923648729183  8.6591953359190966e-08
    85   1      9.4783541252277193      12.712963253856557        1.79115729276076
    86   1      9.0408984873037763      5.1357888046484135   7.751167524077188e-08
    87   1      6.9427539243451921        6.57024746418071  8.2443009205984727e-08
    88   1      8.6894704384898418      6.9142754475247727      1.7911572849438187
    89   1      8.3507881718582162      8.7053955968909804  8.6474776664547236e-08
    90   1      6.2408504941348371      10.115558129090203   9.178199670742227e-08
    91   1      8.0334666619675517      10.489079398956378      1.7911572895241763
    92   1      6.5960429684807176        8.35428550546618      1.7911572877348103
    93   1      7.7456576732268143      12.211585936330877   9.408744533600901e-08
    94   1      5.5928571861721714      13.472764571095155  1.2453435019251849e-07
    95   1      7.3838354502418859      13.828293346424388      1.7911572856129871
    96   1      5.8665646879431748      11.811838296777111      1.7911572780880016
    97   1      3.4279351164412399      5.8473600373651635  8.1848134831975298e-08
    98   1      5.1896506290462741      6.2116479798259547      1.7911572848428525
    99   1      4.8360215735344578      7.9780595795801474  8.6266421466679266e-08
   100   1       2.710518135376407      9.3651247454903626  8.8214169221782888e-08
   101   1      4.4578192043918596      9.7326257100469178      1.7911572888347078
   102   1       3.071165090884397      7.6054917699733977      1.7911572878229256
   103   1      4.0583007803594864      11.496436512425362  9.3185591713881826e-08
   104   1      1.9253924154135797      13.083923664222453  9.0824720633627984e-08
   105   1      3.6547854031812328      13.213830669621814      1.7911572825200168
   106   1      2.3304013957101875       11.15095797291886      1.7911572904190143
   107   1       18.17377631816359      5.1357888144610939  7.8874318321856397e-08
   108   1      1.6649191657323366      5.4877770252430196      1.7911572835202705
   109   1      1.3096259429070602      7.2535411015807938  8.4390738847125678e-08
   110   1     0.96396082445105746      9.0270273673024946      1.7911572900776642
   111   1     0.65221674036252841      10.836061471281241  8.8705594046603829e-08
   112   1     0.34547630798094026      12.712963253963025      1.7911572923924184
   113   1      14.725735000509623       16.52723548763845      3.5823144446360602
   114   1      15.373728277907734      19.884441884358893      3.5823144850423003
   115   1       14.99944247698939      18.188161697106523      5.3734717100610245
   116   1      15.728920746496756      21.645714496540421       5.373471694914068
   117   1      12.630793258507286      14.999999973663421      3.5823144755781762
   118   1      11.058270230893589      16.916076329424868      3.5823144876269231
   119   1      12.787663176119352      16.786169376885937      5.3734717047895915
   120   1      10.785319977640935      14.999999988334196      5.3734716985155577
   121   1      13.191178567311747      18.503563478598807      3.5823144841617487
   122   1      11.843395916239469      20.634875260222742       3.582314488893183
   123   1      13.590696984206222       20.26737430163837      5.3734716948788126
   124   1      11.463279201203907      18.849042007980898      5.3734716938528049
   125   1      13.968899348967172       22.02194042212534      3.5823144901582977
   126   1      12.560812883993297      24.152639961011573      3.5823144932380706
   127   1      14.322528401113971      23.788352021382224      5.3734716961774014
   128   1       12.20404286411228      22.394508228694662      5.3734716939844684
   129   1      8.9446044983341331      14.999999980548637      3.5823144933814763
   130   1      7.7456576448788299      17.788414061133409      3.5823144936167348
   131   1      9.4783540996135223      17.287036734879564      5.3734716927450785
   132   1      7.3838354553634398      16.171706673800401      5.3734716851572166
   133   1        9.78509453039932       19.16393852677669      3.5823144890558738
   134   1      8.3507881317647641      21.294604388596611      3.5823144903192969
   135   1       10.09683860050745      20.972972631058184      5.3734716924851247
   136   1      8.0334666336618845       19.51092060020099      5.3734716899656876
   137   1      10.442503712849211      22.746458893083542      3.5823144911183284
   138   1      9.0408984252318341      24.864211177410937      3.5823144948738146
   139   1      10.797796929484011       24.51222296929285      5.3734716966632066
   140   1      8.6894703874258887      23.085724534236789      5.3734716946055148
   141   1       3.497915429074625      15.000000000517417      3.5823145057308672
   142   1      5.5928571765858193       16.52723548623635      3.5823145273420587
   143   1      4.0583007345619047      18.503563486000075      3.5823144935097595
   144   1      5.8665646556821338      18.188161701528401      5.3734716789787917
   145   1      3.6547853523143123      16.786169377522498      5.3734716840671428
   146   1      6.2408504515532126      19.884441874803059      3.5823144930409865
   147   1      4.8360215129699169      22.021940410185437      3.5823144916908181
   148   1      6.5960429161792051      21.645714481039334      5.3734716922580343
   149   1      4.4578191480999765      20.267374293467668      5.3734716905383575
   150   1      6.9427538665539759      23.429752517121557      3.5823144930853399
   151   1      5.1896505676997258      23.788352005920018      5.3734716966514879
   152   1      5.2503644162882308      14.999999967551418      5.3734716430513734
   153   1      18.077482321211424      15.000000031053304      3.5823144917799992
   154   1      1.6524421450094564      15.000000001620549      5.3734716928903863
   155   1      1.9253923924115282      16.916076341151353       3.582314491265826
   156   1     0.65221668729327575      19.163938535256619       3.582314488553382
   157   1      2.3304013546232172      18.849042018101869      5.3734716903504802
   158   1     0.34547625377726898      17.287036737958658      5.3734716920009395
   159   1      2.7105180733154799       20.63487525837192      3.5823144902575961
   160   1      1.3096258799238425      22.746458902267875      3.5823144926221011
   161   1      3.0711650269584667      22.394508226255113       5.373471694550358
   162   1     0.96396076006100107      20.972972637290155      5.3734716930744826
   163   1       3.427935054078127      24.152639956918165      3.5823144951599639
   164   1      1.6649191054114385      24.512222978046111      5.3734716988599658
   165   1       16.51671327329845      16.171706680667796      5.3734717012594473
   166   1      16.878535455899687      17.788414060199074      3.5823144833008622
   167   1      17.166344449736343      19.510920608731084      5.3734716944978729
   168   1      17.483665952275231      21.294604402101925      3.5823144898553214
   169   1      16.075631699947284      23.429752537738381       3.582314492989787
   170   1      17.822348215733616      23.085724552673753      5.3734716960911371
   171   1      18.173776259915083      24.864211195351572      3.5823144965064615
   172   1      14.383242243517204       14.99999992046898      5.3734717616556242
   173   1      17.483666011236593      8.7053956022558623      3.5823144915155165
   174   1      17.822348274171116      6.9142754574070011      5.3734716916354364
   175   1      16.878535513145977      12.211585930746907       3.582314489500916
   176   1      17.166344500994857      10.489079400417154      5.3734716994841643
   177   1       16.51671328361018      13.828293352572885      5.3734717070919533
   178   1      16.075631754770477      6.5702474756909908      3.5823144868682282
   179   1      13.968899398122391      7.9780595827928522      3.5823144889021754
   180   1      15.728920800120928      8.3542855100596256      5.3734716949353167
   181   1      14.322528455044017      6.2116479895200598      5.3734716885556209
   182   1      15.373728327259434      10.115558128446594      3.5823144887648004
   183   1      13.191178609215585      11.496436496543737      3.5823144886292595
   184   1      14.999442524314862        11.8118382851234      5.3734717140848236
   185   1      13.590697029577237      9.7326257086441927       5.373471697733212
   186   1      14.725735015574243      13.472764569225617       3.582314447375877
   187   1      12.787663241368382      13.213830663892068      5.3734717082915928
   188   1      12.560812939820623      5.8473600417779892      3.5823144840759462
   189   1      10.442503760598015      7.2535410960392426      3.5823144879290636
   190   1      12.204042909879744      7.6054917692845265      5.3734716916927958
   191   1      10.797796989138478      5.4877770223853872      5.3734716861163392
   192   1      11.843395951814689      9.3651247424164978      3.5823144912837765
   193   1      9.7850945571447703      10.836061464261249      3.5823144941473068
   194   1      11.463279210688736      11.150957958065177      5.3734716987046518
   195   1      10.096838638972278      9.0270273629981119      5.3734716945494343
   196   1      11.058270241236531      13.083923648729183      3.5823144921656107
   197   1      9.4783541252277193      12.712963253856557      5.3734716983344164
   198   1      9.0408984873037763      5.1357888046484135       3.582314483085332
   199   1      6.9427539243451921        6.57024746418071      3.5823144880166664
   200   1      8.6894704384898418      6.9142754475247727      5.3734716905174746
   201   1      8.3507881718582162      8.7053955968909804      3.5823144920484342
   202   1      6.2408504941348371      10.115558129090203      3.5823144973556538
   203   1      8.0334666619675517      10.489079398956378       5.373471695097833
   204   1      6.5960429684807176        8.35428550546618       5.373471693308467
   205   1      7.7456576732268143      12.211585936330877       3.582314499661102
   206   1      5.5928571861721714      13.472764571095155      3.5823145301080075
   207   1      7.3838354502418859      13.828293346424388      5.3734716911866451
   208   1      5.8665646879431748      11.811838296777111      5.3734716836616583
   209   1      3.4279351164412399      5.8473600373651635      3.5823144874217925
   210   1      5.1896506290462741      6.2116479798259547      5.3734716904165101
   211   1      4.8360215735344578      7.9780595795801474      3.5823144918400787
   212   1       2.710518135376407      9.3651247454903626      3.5823144937878264
   213   1      4.4578192043918596      9.7326257100469178       5.373471694408364
   214   1       3.071165090884397      7.6054917699733977      5.3734716933965823
   215   1      4.0583007803594864      11.496436512425362      3.5823144987592483
   216   1      1.9253924154135797      13.083923664222453      3.5823144963983782
   217   1      3.6547854031812328      13.213830669621814       5.373471688093673
   218   1      2.3304013957101875       11.15095797291886      5.3734716959926709
   219   1       18.17377631816359      5.1357888144610939      3.5823144844479753
   220   1      1.6649191657323366      5.4877770252430196      5.3734716890939271
   221   1      1.3096259429070602      7.2535411015807938      3.5823144899643964
   222   1     0.96396082445105746      9.0270273673024946      5.3734716956513218
   223   1     0.65221674036252841      10.836061471281241      3.5823144942792515
   224   1     0.34547630798094026      12.712963253963025      5.3734716979660755
