(written by ASE)

288 atoms
1 atom types

0.0      22.940979540778198  xlo xhi
0.0                      30  ylo yhi
0.0      7.1646288111473151  zlo zhi

Atoms # atomic

     1   1      14.290292175706984      19.896309002366962     0.44324427618649204
     2   1      13.147611890000482      18.505961981622022      2.2344013831375982
     3   1      9.2965044213393853      18.989794234297108      0.4432440696707774
     4   1      10.685027390793785      17.831460757604106      2.2344011639263259
     5   1      8.1953567393043194      17.599326483799928      2.2344011004791406
     6   1      11.757916625962904      19.398710517848002     0.44324418236495478
     7   1      11.492958409343036      21.969631166545184     0.44324447555089719
     8   1      12.880592214921091      20.953666737084887      2.2344016154580468
     9   1      10.392807218059342       20.46583861398301      2.2344014930471876
    10   1      14.015161287876449      22.371318236419739     0.44324454640276789
    11   1      13.739470492361853      24.871635524734984     0.44324477284438724
    12   1      12.612270306013901      23.450534841736811      2.2344018481602528
    13   1      4.2454235364154025      18.746201639892575     0.44324418588632486
    14   1      5.6624114511939156      17.535699360512979      2.2344011089630742
    15   1      3.1091679302396593      17.454667777098337      2.2344011606965379
    16   1      6.7877888802982893      18.844904528268046     0.44324410221272376
    17   1      6.4938933771160761      21.401551161067658     0.44324441855547586
    18   1      7.8999767348931673      20.196819068353847      2.2344014362927038
    19   1      5.3729583997282253      20.061410049420175      2.2344014749759649
    20   1      9.0051057154735972       21.60277356349539     0.44324440267202153
    21   1      8.7191720542876965      24.186094655018678     0.44324468897930713
    22   1      10.110154310409197      23.055416307160357      2.2344017749454301
    23   1      7.6084905527148941      22.775556483060484      2.2344017536616465
    24   1      11.220290703717483      24.520960597770141     0.44324472407402649
    25   1      22.155517135750593      17.831460793366631      0.4432440164236216
    26   1      1.6771221973766905      18.505961812364575     0.44324423482288844
    27   1      1.4101024128953914      20.953666846243237     0.44324446324632077
    28   1      2.8198024471029584      19.896308928414584      2.2344015202911187
    29   1     0.28742678116348991       19.39871056917778      2.2344014347582282
    30   1      3.9571064570285372      21.240676172824266     0.44324447255088173
    31   1      3.6754242501256527      23.747221741627413     0.44324472060190062
    32   1      5.0847845178883357      22.588498809282328      2.2344017818680393
    33   1      2.5446715033449334      22.371318257198226      2.2344017949502488
    34   1       6.205890952190857      23.952753658222036     0.44324469861735338
    35   1      4.8006183312617781      25.118664771612799      2.2344020210186391
    36   1       17.13290124488341      17.535699412339682     0.44324389590953012
    37   1      19.665846521567509      17.599326496254065     0.44324391792821421
    38   1      19.370466505148396       20.19681910207575     0.44324425943766416
    39   1      20.766994215539768      18.989794257693319      2.2344013116774621
    40   1      18.258278636002075      18.844904546508388      2.2344013052194311
    41   1      21.863297009048889      20.465838626266134     0.44324433470831115
    42   1      21.580644071340497      23.055416337956757     0.44324461816840199
    43   1    0.022468675334371836      21.969631169015173      2.2344017305543642
    44   1      20.475595471538373      21.602773589990136      2.2344016354673029
    45   1      1.1417805608755645      23.450534814197766     0.44324469840574426
    46   1      2.2689807373909412      24.871635523888244      2.2344020302972996
    47   1       22.69078046381723      24.520960621173288      2.2344019730866944
    48   1      14.579657749228248      17.454667641994661     0.44324392118546352
    49   1      15.715913359504365      18.746201663206591      2.2344013533489697
    50   1      16.843448181084479      20.061410057150624      0.4432442600616322
    51   1      16.555274274695126      22.588498836871139     0.44324454886646236
    52   1      17.964383158801386       21.40155118501346        2.23440162208535
    53   1      15.427596202684409      21.240676184586363      2.2344016381516956
    54   1      19.078980324902801      22.775556499185427     0.44324455322091832
    55   1      20.189661828612483      24.186094675904741      2.2344019126769648
    56   1      17.676380709671569      23.952753678940496      2.2344018766775293
    57   1      15.145914017265047      23.747221746740877      2.2344018792090461
    58   1      16.271108095283786       25.11866478539406     0.44324478343695944
    59   1      22.516526134307686       14.99999996686833     0.44324354850506587
    60   1      21.058165860181433      16.321829443520954      2.2344009451529008
    61   1      21.863296151228287      9.5341613422737339     0.44324266189315242
    62   1      22.155516684972824      12.168539168976338     0.44324307933275758
    63   1      19.665846131808348      12.400673432344831     0.44324311374971076
    64   1      21.058165669191563      13.678170470788615      2.2344005180366224
    65   1      20.766993572012346      11.010205705621416      2.2344001056831746
    66   1       19.86123678830279      14.999999982211733     0.44324352833746444
    67   1      17.290187593179365      14.999999936619361      0.4432434933596146
    68   1      18.520220466328777      16.279821123201913      2.2344009448875193
    69   1      18.520220211700874      13.720178830999657      2.2344005203903801
    70   1      15.981428860024719      16.252012503992518       2.234400982549456
    71   1      21.580642716847251      6.9445836936697845     0.44324226503496761
    72   1      19.078979033675473      7.2244434742713963     0.44324230426385441
    73   1      20.475594428008225      8.3972263880742162      2.2343996979776413
    74   1      20.189660244353188      5.8139053404250092      2.2343993016487214
    75   1       19.37046568478506      9.8031808844228863     0.44324270803785393
    76   1      16.843447435297328      9.9385898509871708     0.44324266597097317
    77   1      18.258278112076859      11.155095384970309      2.2344001150934534
    78   1      17.964382103464946      8.5984488052686174      2.2343997099849218
    79   1      17.132900833172471      12.464300618719193       0.443243060412217
    80   1      14.579657362294686      12.545331932302162      0.4432429448430556
    81   1      15.981428819614715      13.747987398039299       2.234400529555959
    82   1      15.715912697809138      11.253798365481913      2.2344000718271424
    83   1      14.737038911980598       15.00000020744028      0.4432434170407864
    84   1      12.009445080024877      16.762214248625924     0.44324380915179878
    85   1      13.459036168657846      16.154162040375581      2.2344011207893781
    86   1      13.459035735605452      13.845837883026064      2.2344004557070569
    87   1      16.271106362852539      4.8813352146059685     0.44324191199969004
    88   1      17.676379205145544      6.0472463016317874      2.2343993110226177
    89   1      16.555273019244602      7.4115011872957837     0.44324228456444237
    90   1      14.015160091149438      7.6286816869859422     0.44324227287729229
    91   1      15.427595286899216      8.7593237521327012      2.2343996713427758
    92   1      15.145912525904215       6.252778281915738      2.2343993039689281
    93   1      14.290291487273892      10.103691205664177     0.44324260440801588
    94   1      11.757915930959079      10.601289405454509     0.44324271959832418
    95   1      13.147611492396472      11.494038187532652      2.2344000308094141
    96   1      12.880591238046604      9.0463331948414236      2.2343996838898939
    97   1      12.009444895103831      13.237785657096879     0.44324306947789971
    98   1      9.5876758776629227      13.678170480587056     0.44324329034869164
    99   1      11.046036361406976      14.999999968821044      2.2344007070341396
   100   1      10.685026909674573      12.168539191651945      2.2344002568422847
   101   1      9.5876761136281363      16.321829443998865     0.44324370726518131
   102   1      7.0497306480295281      16.279821109899956       0.443243729848531
   103   1      8.3907469968306021      14.999999963037936      2.2344007053838886
   104   1      13.739468816904758      5.1283645385084355     0.44324192448452748
   105   1      11.220289085517681      5.4790394325628995     0.44324198584985625
   106   1      12.612268941592911      6.5494652170887946      2.2343993295733862
   107   1      11.492957327951128      8.0303688702184957     0.44324235847582494
   108   1      9.0051046583718808      8.3972264130847805     0.44324246843859982
   109   1       10.39280641490476      9.5341613868502009      2.2343998334897202
   110   1      10.110152961740603      6.9445837111514379       2.234399433215061
   111   1      9.2965038297809244      11.010205726742242     0.44324288030152664
   112   1      6.7877883160648924      11.155095388308212     0.44324290746737971
   113   1      8.1953563474525986      12.400673449813155      2.2344003032381869
   114   1      7.8999759162264773      9.8031808910781706      2.2343998914285974
   115   1      7.0497304379454162      13.720178828263442      0.4432433132041157
   116   1      4.5109389546855043      13.747987390655709     0.44324334325338621
   117   1      5.8196977889054757       14.99999993933352      2.2344006915473611
   118   1      5.6624110492867157       12.46430057907412      2.2344002675890824
   119   1      4.5109391418667126      16.252012497224541      0.4432438023987505
   120   1      1.9885462824142028      16.154162132593257     0.44324397323355846
   121   1      3.2665491190657368       14.99999999236843      2.2344006345572214
   122   1      8.7191704950108591      5.8139053782562371     0.44324206573900793
   123   1      6.2058894432262299      6.0472463369493141     0.44324209284057053
   124   1      7.6084892829510142      7.2244435001302065      2.2343994860734804
   125   1      6.4938923523488654       8.598448823164091     0.44324249222299494
   126   1      3.9571055104981561      8.7593237439162692     0.44324248023094198
   127   1      5.3729576665654077      9.9385898652243441      2.2343998622715264
   128   1      5.0847832511623192      7.4115011944443268      2.2343994876387843
   129   1      4.2454229587469694      11.253798346707981     0.44324288216007357
   130   1      1.6771216426812425      11.494037988076769     0.44324285397887964
   131   1       3.109167623487946      12.545332043284333      2.2344001633584942
   132   1       2.819801678205037       10.10369112124269      2.2343998223992467
   133   1      1.9885460415006095      13.845837963576798     0.44324328520031814
   134   1     0.53895535498553204      16.762214264505133      2.2344010569883226
   135   1     0.53895505313903025      13.237785595165661      2.2344002898417403
   136   1      4.8006166038211502      4.8813352395471838      2.2343991021675582
   137   1      3.6754227590200417      6.2527782964042729     0.44324210329260239
   138   1      1.1417791415451173      6.5494651638549897     0.44324215544510193
   139   1      2.5446703276088964      7.6286816824248262      2.2343994936755536
   140   1      2.2689790302099722      5.1283645316171373       2.234399135416071
   141   1      1.4101014898336104      9.0463332629493038     0.44324250162164885
   142   1     0.28742620921165102      10.601289388415836      2.2343999454848604
   143   1    0.022467518106133455      8.0303688213909652      2.2343995903564582
   144   1      22.690778848391918      5.4790394085694913      2.2343992186843207
   145   1      14.290292175706984      19.896309002366962      4.0255586817601499
   146   1      13.147611890000482      18.505961981622022      5.8167157887112539
   147   1      9.2965044213393853      18.989794234297108      4.0255584752444342
   148   1      10.685027390793785      17.831460757604106      5.8167155694999835
   149   1      8.1953567393043194      17.599326483799928      5.8167155060527982
   150   1      11.757916625962904      19.398710517848002      4.0255585879386118
   151   1      11.492958409343036      21.969631166545184       4.025558881124554
   152   1      12.880592214921091      20.953666737084887       5.816716021031703
   153   1      10.392807218059342       20.46583861398301      5.8167158986208438
   154   1      14.015161287876449      22.371318236419739      4.0255589519764241
   155   1      13.739470492361853      24.871635524734984      4.0255591784180433
   156   1      12.612270306013901      23.450534841736811       5.816716253733909
   157   1      4.2454235364154025      18.746201639892575      4.0255585914599807
   158   1      5.6624114511939156      17.535699360512979      5.8167155145367309
   159   1      3.1091679302396593      17.454667777098337      5.8167155662701946
   160   1      6.7877888802982893      18.844904528268046      4.0255585077863802
   161   1      6.4938933771160761      21.401551161067658      4.0255588241291331
   162   1      7.8999767348931673      20.196819068353847      5.8167158418663618
   163   1      5.3729583997282253      20.061410049420175      5.8167158805496211
   164   1      9.0051057154735972       21.60277356349539      4.0255588082456786
   165   1      8.7191720542876965      24.186094655018678      4.0255590945529631
   166   1      10.110154310409197      23.055416307160357      5.8167161805190872
   167   1      7.6084905527148941      22.775556483060484      5.8167161592353036
   168   1      11.220290703717483      24.520960597770141      4.0255591296476831
   169   1      22.155517135750593      17.831460793366631      4.0255584219972782
   170   1      1.6771221973766905      18.505961812364575      4.0255586403965458
   171   1      1.4101024128953914      20.953666846243237       4.025558868819977
   172   1      2.8198024471029584      19.896308928414584      5.8167159258647763
   173   1     0.28742678116348991       19.39871056917778      5.8167158403318835
   174   1      3.9571064570285372      21.240676172824266      4.0255588781245395
   175   1      3.6754242501256527      23.747221741627413      4.0255591261755583
   176   1      5.0847845178883357      22.588498809282328      5.8167161874416964
   177   1      2.5446715033449334      22.371318257198226      5.8167162005239046
   178   1       6.205890952190857      23.952753658222036      4.0255591041910108
   179   1      4.8006183312617781      25.118664771612799      5.8167164265922953
   180   1       17.13290124488341      17.535699412339682      4.0255583014831879
   181   1      19.665846521567509      17.599326496254065      4.0255583235018708
   182   1      19.370466505148396       20.19681910207575      4.0255586650113218
   183   1      20.766994215539768      18.989794257693319      5.8167157172511192
   184   1      18.258278636002075      18.844904546508388      5.8167157107930887
   185   1      21.863297009048889      20.465838626266134      4.0255587402819675
   186   1      21.580644071340497      23.055416337956757      4.0255590237420584
   187   1    0.022468675334371836      21.969631169015173      5.8167161361280222
   188   1      20.475595471538373      21.602773589990136      5.8167160410409586
   189   1      1.1417805608755645      23.450534814197766      4.0255591039794005
   190   1      2.2689807373909412      24.871635523888244      5.8167164358709558
   191   1       22.69078046381723      24.520960621173288      5.8167163786603515
   192   1      14.579657749228248      17.454667641994661      4.0255583267591195
   193   1      15.715913359504365      18.746201663206591      5.8167157589226255
   194   1      16.843448181084479      20.061410057150624      4.0255586656352884
   195   1      16.555274274695126      22.588498836871139      4.0255589544401191
   196   1      17.964383158801386       21.40155118501346      5.8167160276590062
   197   1      15.427596202684409      21.240676184586363      5.8167160437253518
   198   1      19.078980324902801      22.775556499185427      4.0255589587945746
   199   1      20.189661828612483      24.186094675904741       5.816716318250621
   200   1      17.676380709671569      23.952753678940496      5.8167162822511864
   201   1      15.145914017265047      23.747221746740877      5.8167162847827036
   202   1      16.271108095283786       25.11866478539406      4.0255591890106164
   203   1      22.516526134307686       14.99999996686833      4.0255579540787227
   204   1      21.058165860181433      16.321829443520954      5.8167153507265574
   205   1      21.863296151228287      9.5341613422737339      4.0255570674668091
   206   1      22.155516684972824      12.168539168976338      4.0255574849064146
   207   1      19.665846131808348      12.400673432344831      4.0255575193233684
   208   1      21.058165669191563      13.678170470788615        5.81671492361028
   209   1      20.766993572012346      11.010205705621416      5.8167145112568317
   210   1       19.86123678830279      14.999999982211733      4.0255579339111218
   211   1      17.290187593179365      14.999999936619361      4.0255578989332719
   212   1      18.520220466328777      16.279821123201913      5.8167153504611777
   213   1      18.520220211700874      13.720178830999657      5.8167149259640372
   214   1      15.981428860024719      16.252012503992518      5.8167153881231117
   215   1      21.580642716847251      6.9445836936697845      4.0255566706086237
   216   1      19.078979033675473      7.2244434742713963      4.0255567098375113
   217   1      20.475594428008225      8.3972263880742162      5.8167141035512975
   218   1      20.189660244353188      5.8139053404250092      5.8167137072223785
   219   1       19.37046568478506      9.8031808844228863      4.0255571136115114
   220   1      16.843447435297328      9.9385898509871708      4.0255570715446298
   221   1      18.258278112076859      11.155095384970309      5.8167145206671105
   222   1      17.964382103464946      8.5984488052686174       5.816714115558578
   223   1      17.132900833172471      12.464300618719193      4.0255574659858739
   224   1      14.579657362294686      12.545331932302162      4.0255573504167117
   225   1      15.981428819614715      13.747987398039299      5.8167149351296166
   226   1      15.715912697809138      11.253798365481913      5.8167144774007999
   227   1      14.737038911980598       15.00000020744028      4.0255578226144442
   228   1      12.009445080024877      16.762214248625924      4.0255582147254563
   229   1      13.459036168657846      16.154162040375581      5.8167155263630352
   230   1      13.459035735605452      13.845837883026064      5.8167148612807136
   231   1      16.271106362852539      4.8813352146059685       4.025556317573348
   232   1      17.676379205145544      6.0472463016317874      5.8167137165962739
   233   1      16.555273019244602      7.4115011872957837      4.0255566901380995
   234   1      14.015160091149438      7.6286816869859422      4.0255566784509487
   235   1      15.427595286899216      8.7593237521327012      5.8167140769164325
   236   1      15.145912525904215       6.252778281915738      5.8167137095425856
   237   1      14.290291487273892      10.103691205664177      4.0255570099816733
   238   1      11.757915930959079      10.601289405454509      4.0255571251719813
   239   1      13.147611492396472      11.494038187532652      5.8167144363830712
   240   1      12.880591238046604      9.0463331948414236      5.8167140894635523
   241   1      12.009444895103831      13.237785657096879      4.0255574750515573
   242   1      9.5876758776629227      13.678170480587056      4.0255576959223491
   243   1      11.046036361406976      14.999999968821044      5.8167151126077963
   244   1      10.685026909674573      12.168539191651945      5.8167146624159418
   245   1      9.5876761136281363      16.321829443998865      4.0255581128388389
   246   1      7.0497306480295281      16.279821109899956      4.0255581354221883
   247   1      8.3907469968306021      14.999999963037936      5.8167151109575466
   248   1      13.739468816904758      5.1283645385084355      4.0255563300581834
   249   1      11.220289085517681      5.4790394325628995      4.0255563914235131
   250   1      12.612268941592911      6.5494652170887946      5.8167137351470446
   251   1      11.492957327951128      8.0303688702184957      4.0255567640494823
   252   1      9.0051046583718808      8.3972264130847805      4.0255568740122563
   253   1       10.39280641490476      9.5341613868502009      5.8167142390633781
   254   1      10.110152961740603      6.9445837111514379      5.8167138387887176
   255   1      9.2965038297809244      11.010205726742242      4.0255572858751831
   256   1      6.7877883160648924      11.155095388308212      4.0255573130410358
   257   1      8.1953563474525986      12.400673449813155      5.8167147088118449
   258   1      7.8999759162264773      9.8031808910781706       5.816714297002255
   259   1      7.0497304379454162      13.720178828263442      4.0255577187777734
   260   1      4.5109389546855043      13.747987390655709      4.0255577488270422
   261   1      5.8196977889054757       14.99999993933352      5.8167150971210182
   262   1      5.6624110492867157       12.46430057907412      5.8167146731627382
   263   1      4.5109391418667126      16.252012497224541      4.0255582079724066
   264   1      1.9885462824142028      16.154162132593257       4.025558378807216
   265   1      3.2665491190657368       14.99999999236843      5.8167150401308776
   266   1      8.7191704950108591      5.8139053782562371      4.0255564713126653
   267   1      6.2058894432262299      6.0472463369493141      4.0255564984142262
   268   1      7.6084892829510142      7.2244435001302065      5.8167138916471366
   269   1      6.4938923523488654       8.598448823164091      4.0255568977966529
   270   1      3.9571055104981561      8.7593237439162692      4.0255568858045985
   271   1      5.3729576665654077      9.9385898652243441      5.8167142678451826
   272   1      5.0847832511623192      7.4115011944443268      5.8167138932124418
   273   1      4.2454229587469694      11.253798346707981      4.0255572877337293
   274   1      1.6771216426812425      11.494037988076769       4.025557259552536
   275   1       3.109167623487946      12.545332043284333      5.8167145689321504
   276   1       2.819801678205037       10.10369112124269      5.8167142279729038
   277   1      1.9885460415006095      13.845837963576798      4.0255576907739758
   278   1     0.53895535498553204      16.762214264505133      5.8167154625619792
   279   1     0.53895505313903025      13.237785595165661      5.8167146954153974
   280   1      4.8006166038211502      4.8813352395471838      5.8167135077412135
   281   1      3.6754227590200417      6.2527782964042729      4.0255565088662584
   282   1      1.1417791415451173      6.5494651638549897      4.0255565610187585
   283   1      2.5446703276088964      7.6286816824248262      5.8167138992492093
   284   1      2.2689790302099722      5.1283645316171373      5.8167135409897277
   285   1      1.4101014898336104      9.0463332629493038      4.0255569071953055
   286   1     0.28742620921165102      10.601289388415836      5.8167143510585184
   287   1    0.022467518106133455      8.0303688213909652      5.8167139959301153
   288   1      22.690778848391918      5.4790394085694913      5.8167136242579778
