(written by ASE)

180 atoms
1 atom types

0.0      14.774517039936553  xlo xhi
0.0                      30  ylo yhi
0.0      7.1646288111473151  zlo zhi

Atoms # atomic

     1   1      6.2724133166250979      18.238125154717579 -1.0562953583637554e-06
     2   1      5.8896742767435928      16.542329598761654      1.7911560627963297
     3   1      7.1764513541072148      21.699087424633944 -9.8752292895780476e-07
     4   1      6.7414156034527224       19.94653351873734      1.7911561949025614
     5   1      4.0296690127819099      16.878645555074939 -1.0750488359048848e-06
     6   1      2.8313455960562739      19.086279015790439 -9.9779393883560248e-07
     7   1      4.5368102838572568      18.652722400323682      1.7911561807314769
     8   1       2.421207601646024      17.233136365829893      1.7911561586184364
     9   1      4.9927790042193303      20.410551358888796 -9.9057597442272214e-07
    10   1      3.6918170237321433      22.593777399523162 -9.9492487193097614e-07
    11   1      5.4366906925874385      22.148531493495284      1.7911562085646482
    12   1      3.2555413005593477      20.845089657893368      1.7911562163967822
    13   1      5.8701919223183339       23.89836986390938  -1.012999867320511e-06
    14   1      4.1299841843085145      24.340808806264988      1.7911561720668285
    15   1      13.276932707768863      16.542329331788693 -1.1408753762809534e-06
    16   1     0.71847453578257015      17.771515804389793 -1.0363467072969704e-06
    17   1      14.128674068228014      19.946533518296178 -1.0007889733737064e-06
    18   1       1.102369773944349      19.494915698295955      1.7911562024394616
    19   1      13.659671838563192      18.238125266926346       1.791156147036044
    20   1      1.5207312016694443       21.26689976763285  -9.851471481635604e-07
    21   1     0.21932897847250096      23.460886314245471 -1.0116840188791188e-06
    22   1      1.9535004628999695      23.028312541788409      1.7911561963645664
    23   1        14.5637098489635      21.699087474369207      1.7911562118635058
    24   1      2.3898209684979346      24.781588300092579 -1.0455968367039216e-06
    25   1      9.8084658908760272      17.233136293258951 -1.0645314892901362e-06
    26   1      11.416927885038714      16.878645218977738      1.7911561096019031
    27   1      11.924068828033732      18.652722538421159 -1.0277093982424661e-06
    28   1      10.642799807311322      20.845089675114053 -9.8273756985202488e-07
    29   1      12.380037492155127      20.410551374520082      1.7911562105487944
    30   1      10.218604090420474      19.086279166836306      1.7911561924689436
    31   1      12.823949175764394      22.148531598387081 -9.8845151332428881e-07
    32   1      11.517242646471146      24.340808912162515 -1.0154921277760198e-06
    33   1      13.257450397207858      23.898369918233129      1.7911561858535423
    34   1      11.079075511673294      22.593777514112389      1.7911562132623327
    35   1      8.1057330485963579      17.771515693501186      1.7911561495509039
    36   1      8.4896283678434408       19.49491570224464 -1.0081614662818232e-06
    37   1      8.9079897508794001      21.266899751555826      1.7911562170585835
    38   1      9.3407589674748017      23.028312623600499 -9.9235934525263841e-07
    39   1       9.777079443090793      24.781588411018788      1.7911561775507676
    40   1      7.6065875139852688       23.46088633246984      1.7911561995254355
    41   1     0.28114930394959209      16.167626750400416       1.791156136840095
    42   1      7.6684079552227749       16.16762690800752 -1.0793532336809627e-06
    43   1      14.128675510135695      10.053466540768255 -1.3690128549450666e-06
    44   1      13.276933591893719      13.457670776906326  -1.296958987898951e-06
    45   1      13.659672909403644      11.761874998314795      1.7911558534294723
    46   1      12.889778011608032      15.000000446295076      1.7911559792237379
    47   1      11.517245049503433       5.659191124839893 -1.2733123150880269e-06
    48   1       13.25745271865903      6.1016300930519378      1.7911559144013323
    49   1      12.823951124477146       7.851468465205798 -1.3428981080690048e-06
    50   1      10.642801466526894       9.154910324817223 -1.3603740034714617e-06
    51   1      12.380039059910185      9.5894486773765379      1.7911558402491046
    52   1      11.079077541394241      7.4062225416949872      1.7911558728296455
    53   1      11.924069970628555      11.347277677012357 -1.3597454407699133e-06
    54   1      9.8084668426004757      12.766863612499066 -1.3585743107468338e-06
    55   1      11.416928300771804      13.121354453176366      1.7911558675690091
    56   1      10.218605310793835      10.913720928050992      1.7911558309946258
    57   1      11.078696238314416       15.00000003722559 -1.2312392586794787e-06
    58   1      9.2412900236638524      15.000000513407144      1.7911559606330298
    59   1      9.7770819115161594      5.2184115889812119      1.7911559553845131
    60   1      9.3407610452848555      6.9716873830914921 -1.3193654269311541e-06
    61   1      7.1764531447178079       8.300912544188364 -1.3635435971068767e-06
    62   1      8.9079914406338911      8.7331001886803676      1.7911558398390544
    63   1      7.6065896695988551      6.5391136258594003      1.7911558941284396
    64   1      8.4896296474210473      10.505084341491056 -1.3811314498528445e-06
    65   1      6.2724144825842902      11.761874900954297 -1.3682127413795504e-06
    66   1      8.1057340764075878      12.228484389463006      1.7911558199834912
    67   1      6.7414170392319477      10.053466598654211      1.7911558169434592
    68   1      7.6684085069929075      13.832373599417707 -1.3832123196495094e-06
    69   1      5.5025194487086111      14.999999488827626 -1.2265457594250273e-06
    70   1      5.8896749861881084       13.45767106627423      1.7911558955772957
    71   1       5.870194189577763      6.1016300757172814 -1.2917588988910857e-06
    72   1      3.6918190524536549      7.4062225637006804 -1.3498236623243033e-06
    73   1       5.436692595480614      7.8514684833964736      1.7911558397154537
    74   1      4.1299865751478322      5.6591911252897376      1.7911559357887195
    75   1      4.9927805450708655      9.5894487685490901 -1.3913697511762127e-06
    76   1      2.8313467200108975      10.913720793582144 -1.3979153288365351e-06
    77   1      4.5368115353750689      11.347277554512118      1.7911558124138305
    78   1      3.2555429182181759      9.1549104201552893      1.7911558127852678
    79   1      4.0296701417882161       13.12135473693769 -1.3506021018757128e-06
    80   1      1.8540314808460134      15.000000223624795  -1.218716393013336e-06
    81   1      3.6914376735713756      14.999999909527844      1.7911559819906695
    82   1      2.4212080818607018      12.766863598703338       1.791155828729216
    83   1      2.3898234467379771      5.2184116269693419 -1.2432632746176204e-06
    84   1     0.21933121100321909      6.5391136430889958 -1.3098073585396495e-06
    85   1      1.9535025977024676      6.9716874016479551      1.7911558723331729
    86   1      1.5207329205575364      8.7331002542733245  -1.378669061143298e-06
    87   1      1.1023710884897395      10.505084321881611      1.7911558119207172
    88   1      14.563711675071284      8.3009125487809428      1.7911558431872476
    89   1      0.7184754656263459       12.22848445193992 -1.3761364554283709e-06
    90   1     0.28115015703520968      13.832373408157849      1.7911558397362604
    91   1      6.2724133166250979      18.238125154717579      3.5823133492782979
    92   1      5.8896742767435928      16.542329598761654      5.3734704683699874
    93   1      7.1764513541072148      21.699087424633944      3.5823134180507279
    94   1      6.7414156034527224       19.94653351873734      5.3734706004762183
    95   1      4.0296690127819099      16.878645555074939      3.5823133305248209
    96   1      2.8313455960562739      19.086279015790439      3.5823134077797185
    97   1      4.5368102838572568      18.652722400323682      5.3734705863051335
    98   1       2.421207601646024      17.233136365829893      5.3734705641920932
    99   1      4.9927790042193303      20.410551358888796      3.5823134149976816
   100   1      3.6918170237321433      22.593777399523162      3.5823134106487848
   101   1      5.4366906925874385      22.148531493495284      5.3734706141383048
   102   1      3.2555413005593477      20.845089657893368      5.3734706219704389
   103   1      5.8701919223183339       23.89836986390938      3.5823133925737896
   104   1      4.1299841843085145      24.340808806264988       5.373470577640485
   105   1      13.276932707768863      16.542329331788693      3.5823132646982812
   106   1     0.71847453578257015      17.771515804389793      3.5823133692269487
   107   1      14.128674068228014      19.946533518296178      3.5823134047846832
   108   1       1.102369773944349      19.494915698295955        5.37347060801312
   109   1      13.659671838563192      18.238125266926346      5.3734705526097022
   110   1      1.5207312016694443       21.26689976763285      3.5823134204265092
   111   1     0.21932897847250096      23.460886314245471      3.5823133938896383
   112   1      1.9535004628999695      23.028312541788409      5.3734706019382221
   113   1        14.5637098489635      21.699087474369207      5.3734706174371629
   114   1      2.3898209684979346      24.781588300092579        3.58231335997682
   115   1      9.8084658908760272      17.233136293258951      3.5823133410421666
   116   1      11.416927885038714      16.878645218977738      5.3734705151755593
   117   1      11.924068828033732      18.652722538421159      3.5823133778642586
   118   1      10.642799807311322      20.845089675114053      3.5823134228360867
   119   1      12.380037492155127      20.410551374520082      5.3734706161224519
   120   1      10.218604090420474      19.086279166836306      5.3734705980425996
   121   1      12.823949175764394      22.148531598387081      3.5823134171221431
   122   1      11.517242646471146      24.340808912162515      3.5823133900815289
   123   1      13.257450397207858      23.898369918233129      5.3734705914271998
   124   1      11.079075511673294      22.593777514112389      5.3734706188359898
   125   1      8.1057330485963579      17.771515693501186      5.3734705551245607
   126   1      8.4896283678434408       19.49491570224464      3.5823133974121899
   127   1      8.9079897508794001      21.266899751555826      5.3734706226322402
   128   1      9.3407589674748017      23.028312623600499      3.5823134132143113
   129   1       9.777079443090793      24.781588411018788      5.3734705831244236
   130   1      7.6065875139852688       23.46088633246984      5.3734706050990919
   131   1     0.28114930394959209      16.167626750400416      5.3734705424137514
   132   1      7.6684079552227749       16.16762690800752      3.5823133262204228
   133   1      14.128675510135695      10.053466540768255      3.5823130365608016
   134   1      13.276933591893719      13.457670776906326      3.5823131086146693
   135   1      13.659672909403644      11.761874998314795      5.3734702590031285
   136   1      12.889778011608032      15.000000446295076       5.373470384797395
   137   1      11.517245049503433       5.659191124839893      3.5823131322613415
   138   1       13.25745271865903      6.1016300930519378      5.3734703199749907
   139   1      12.823951124477146       7.851468465205798      3.5823130626755484
   140   1      10.642801466526894       9.154910324817223      3.5823130451996525
   141   1      12.380039059910185      9.5894486773765379      5.3734702458227623
   142   1      11.079077541394241      7.4062225416949872      5.3734702784033024
   143   1      11.924069970628555      11.347277677012357      3.5823130458282155
   144   1      9.8084668426004757      12.766863612499066      3.5823130469993458
   145   1      11.416928300771804      13.121354453176366       5.373470273142666
   146   1      10.218605310793835      10.913720928050992      5.3734702365682825
   147   1      11.078696238314416       15.00000003722559      3.5823131743343986
   148   1      9.2412900236638524      15.000000513407144      5.3734703662066874
   149   1      9.7770819115161594      5.2184115889812119      5.3734703609581702
   150   1      9.3407610452848555      6.9716873830914921        3.58231308620823
   151   1      7.1764531447178079       8.300912544188364      3.5823130420300591
   152   1      8.9079914406338911      8.7331001886803676      5.3734702454127117
   153   1      7.6065896695988551      6.5391136258594003      5.3734702997020953
   154   1      8.4896296474210473      10.505084341491056      3.5823130244422066
   155   1      6.2724144825842902      11.761874900954297      3.5823130373609162
   156   1      8.1057340764075878      12.228484389463006      5.3734702255571483
   157   1      6.7414170392319477      10.053466598654211       5.373470222517116
   158   1      7.6684085069929075      13.832373599417707      3.5823130223613369
   159   1      5.5025194487086111      14.999999488827626      3.5823131790278979
   160   1      5.8896749861881084       13.45767106627423      5.3734703011509524
   161   1       5.870194189577763      6.1016300757172814      3.5823131138147577
   162   1      3.6918190524536549      7.4062225637006804      3.5823130557499945
   163   1       5.436692595480614      7.8514684833964736      5.3734702452891101
   164   1      4.1299865751478322      5.6591911252897376      5.3734703413623768
   165   1      4.9927805450708655      9.5894487685490901      3.5823130142039057
   166   1      2.8313467200108975      10.913720793582144      3.5823130076583278
   167   1      4.5368115353750689      11.347277554512118      5.3734702179874878
   168   1      3.2555429182181759      9.1549104201552893      5.3734702183589249
   169   1      4.0296701417882161       13.12135473693769      3.5823130549715558
   170   1      1.8540314808460134      15.000000223624795       3.582313186857264
   171   1      3.6914376735713756      14.999999909527844      5.3734703875643266
   172   1      2.4212080818607018      12.766863598703338      5.3734702343028733
   173   1      2.3898234467379771      5.2184116269693419      3.5823131623103821
   174   1     0.21933121100321909      6.5391136430889958      3.5823130957662985
   175   1      1.9535025977024676      6.9716874016479551      5.3734702779068302
   176   1      1.5207329205575364      8.7331002542733245       3.582313026904596
   177   1      1.1023710884897395      10.505084321881611      5.3734702174943747
   178   1      14.563711675071284      8.3009125487809428      5.3734702487609054
   179   1      0.7184754656263459       12.22848445193992      3.5823130294372008
   180   1     0.28115015703520968      13.832373408157849      5.3734702453099175
