(written by ASE)

276 atoms
1 atom types

0.0      21.787352867796852  xlo xhi
0.0                      30  ylo yhi
0.0      7.1646288111473151  zlo zhi

Atoms # atomic

     1   1      9.3259243571533297      16.757376940230415       1.791157199959541
     2   1      9.9695305783776291      20.169339073231868      1.7911571999507536
     3   1      9.6437681960375752      18.436912388408047      3.5823144027378926
     4   1       10.61072022061221      23.697968298816619      1.7911571999420497
     5   1      10.303444357414222      21.922499549624973      3.5823144027332217
     6   1      5.8237508662724187      16.937540933279564       1.791157199956894
     7   1      7.5350631064157891      16.835134007838178      3.5823144027421256
     8   1      7.8363107841236532      18.680528963709861      1.7911571999549292
     9   1      6.4618177937070547      20.771616978445081      1.7911571999579605
    10   1      8.1980222736879576      20.475226160540274       3.582314402739379
    11   1      6.1598210334046364      18.922442527288752      3.5823144027428637
    12   1      8.5287937697004175      22.248860598423306      1.7911571999511338
    13   1      7.0626139691608492      24.324060266746415      1.7911571999553362
    14   1      8.8387700655121044      24.014985324596296      3.5823144027333709
    15   1       6.762079694917869      22.555326910808219      3.5823144027437537
    16   1      2.4947901296076873      17.798244652367003      1.7911571999618399
    17   1      4.2433007556144613      17.311122543243386       3.582314402743195
    18   1      2.1715895786504849       16.17401400946801       3.582314402737242
    19   1       4.492486069556616      19.203356176227885      1.7911571999603895
    20   1      2.9739617113644536      21.303209064583598      1.7911571999686953
    21   1      4.7289376675600607       21.03530699622516      3.5823144027494531
    22   1      2.7265416330448673      19.519076923563802       3.582314402746837
    23   1      4.9987597488751403      22.835971530076193      1.7911571999653788
    24   1      3.5265298922885568      24.902689384135471      1.7911571999729767
    25   1      5.2901737530166235      24.618197062617867       3.582314402751213
    26   1      3.2403084250501104      23.105686989974231      3.5823144027582825
    27   1     0.37623963331630744        16.5231982106217      1.7911571999873217
    28   1      20.537444629930015      18.436912388373514      1.7911571999642988
    29   1     0.59941662103117355      18.168496753711679       3.582314402734486
    30   1      20.219600791011445      16.757376940309314      3.5823144027359737
    31   1      0.9043228258215581      19.850237502785632       1.791157199968076
    32   1      21.197120791294182      21.922499549599252      1.7911571999723961
    33   1      1.1934467586496069      21.600713881603156       3.582314402756873
    34   1      20.863207012256094      20.169339073244942      3.5823144027504115
    35   1      1.4816356482265223      23.390428036630908      1.7911571999764075
    36   1      1.7692409096108548      25.188733340884937      3.5823144027636382
    37   1      21.504396654497743      23.697968298809229      3.5823144027626084
    38   1      18.428739540293645      16.835134007866316      1.7911571999582063
    39   1      17.053497467322995      18.922442527286336      1.7911571999581668
    40   1       18.72998721799863      18.680528963693178      3.5823144027453568
    41   1      16.717427300176603       16.93754093328144      3.5823144027410065
    42   1      19.091698707551082      20.475226160549511      1.7911571999649687
    43   1      17.655756128818165      22.555326910810123      1.7911571999622389
    44   1      19.422470203578438      22.248860598408697      3.5823144027549145
    45   1      17.355494227614152      20.771616978463214      3.5823144027470422
    46   1      19.732446499409072      24.014985324606357      1.7911571999709908
    47   1      17.956290403074906      24.324060266773415      3.5823144027483207
    48   1      13.065266012547491      16.174014009426543      1.7911571999523757
    49   1       15.13697718945965      17.311122543254811      1.7911571999542335
    50   1      13.620218066944076      19.519076923549989      1.7911571999515221
    51   1      15.386162503381428      19.203356176216573      3.5823144027409111
    52   1      13.388466563562766      17.798244652431606      3.5823144027357854
    53   1      15.622614101440691      21.035306996262364      1.7911571999557183
    54   1      14.133984858969173      23.105686989996542      1.7911571999464104
    55   1      15.892436182772057      22.835971530096344      3.5823144027403901
    56   1      13.867638145282159      21.303209064618983      3.5823144027364777
    57   1      16.183850186934528      24.618197062656492      1.7911571999495206
    58   1      14.420206326211826      24.902689384173499      3.5823144027265159
    59   1      11.269916067150993      16.523198210505683      3.5823144027337341
    60   1      11.493093054922964      18.168496753772985      1.7911571999579456
    61   1      11.797999259716244      19.850237502772245      3.5823144027351175
    62   1      12.087123192561952      21.600713881641298      1.7911571999470348
    63   1      12.375312082139109       23.39042803665339      3.5823144027284366
    64   1      12.662917343521039      25.188733340915633      1.7911571999340294
    65   1      18.319234488132448      15.000000000014523       3.582314402741404
    66   1    0.054474483320145463      14.999999999939689      3.5823144027009595
    67   1      10.948150917206885      15.000000000111868      1.7911571999816587
    68   1      20.105069946395624      14.999999999995794      1.7911571999698992
    69   1      5.5688521877058603      14.999999999998806      3.5823144027453608
    70   1      7.4255580542423614      15.000000000003354      1.7911571999635021
    71   1      9.2113935124987822      15.000000000030695      3.5823144027465892
    72   1       3.729275753315076      15.000000000025324      1.7911571999551337
    73   1      14.622952187200287      15.000000000002956      3.5823144027473122
    74   1      21.504396654541544      6.3020317011687013      3.5823144027880236
    75   1      20.863207012282469      9.8306609267683172      3.5823144027638198
    76   1      21.197120791328068      8.0775004503854007      1.7911571999903813
    77   1      20.219600791061854      13.242623059788031      3.5823144027408365
    78   1      20.537444629948322      11.563087611624411      1.7911571999713705
    79   1      17.956290403116327      5.6759397332200336      3.5823144028063347
    80   1      19.732446499451274      5.9850146753786788       1.791157200007196
    81   1      19.422470203616911       7.751139401581213      3.5823144027850193
    82   1      17.355494227651644      9.2283830215609015      3.5823144027845819
    83   1      19.091698707581305      9.5247738394680397      1.7911571999873594
    84   1      17.655756128859345      7.4446730891881998      1.7911572000098148
    85   1      18.729987218000936      11.319471036299191      3.5823144027626426
    86   1      16.717427300196821      13.062459066751103      3.5823144027566274
    87   1      18.428739540299581      13.164865992175834      1.7911571999664122
    88   1      17.053497467355388      11.077557472732053      1.7911571999847504
    89   1      14.420206326251318      5.0973106158296275      3.5823144028337279
    90   1      16.183850186973693       5.381802937343636      1.7911572000333296
    91   1      15.892436182813167      7.1640284699078762      3.5823144028089793
    92   1      13.867638145316942       8.696790935400017       3.582314402802655
    93   1      15.622614101475349      8.9646930037580859      1.7911572000068481
    94   1      14.133984859009979      6.8943130100109471      1.7911572000333049
    95   1      15.386162503419101      10.796643823795975      3.5823144027777096
    96   1      13.388466563557254      12.201755347614693      3.5823144027712699
    97   1      15.136977189454493      12.688877456784411      1.7911571999768938
    98   1      13.620218066976207      10.480923076457088      1.7911571999983116
    99   1       13.06526601259162      13.825985990555495      1.7911571999828173
   100   1      1.1934467586752324      8.3992861183779866       3.582314402774498
   101   1     0.59941662103882498      11.831503246279965      3.5823144027400837
   102   1         12.662917343561      4.8112666590843531      1.7911572000563958
   103   1      12.375312082178086      6.6095719633518399      3.5823144028290552
   104   1      10.303444357444324      8.0775004503872339      3.5823144028161296
   105   1      12.087123192594357      8.3992861183745475      1.7911572000230844
   106   1       10.61072022065046      6.3020317011833527      1.7911572000463545
   107   1      11.797999259746073      10.149762497225396      3.5823144027896872
   108   1      9.6437681960481729      11.563087611629712      3.5823144027765395
   109   1      11.493093054936807      11.831503246269904       1.791157199991245
   110   1      9.9695305783971762      9.8306609267629028      1.7911572000098925
   111   1      11.269916067194888      13.476801789411411      3.5823144027512406
   112   1      9.3259243570970458      13.242623059678067      1.7911571999792459
   113   1      8.8387700655540051      5.9850146753968545      3.5823144028329756
   114   1      6.7620796949516038      7.4446730891911557      3.5823144028130627
   115   1      8.5287937697298197      7.7511394015838846      1.7911572000301728
   116   1      7.0626139692105898      5.6759397332386499      1.7911572000391092
   117   1      8.1980222737050852      9.5247738394531893      3.5823144027984339
   118   1      6.1598210334077068      11.077557472713607      3.5823144027789535
   119   1      7.8363107841554971      11.319471036328451      1.7911571999926537
   120   1      6.4618177937226378      9.2283830215442038      1.7911572000091249
   121   1       7.535063106420659      13.164865992149828      3.5823144027603533
   122   1      5.8237508662702391      13.062459066719498      1.7911571999720708
   123   1      5.2901737530720983      5.3818029373605327      3.5823144028161962
   124   1      3.2403084250895509      6.8943130100065844      3.5823144027945566
   125   1      4.9987597489112758      7.1640284699131769      1.7911572000169185
   126   1      3.5265298923470292      5.0973106158372303      1.7911572000185028
   127   1      4.7289376675777843      8.9646930037637702      3.5823144027891352
   128   1      2.7265416330495875      10.480923076437364      3.5823144027636831
   129   1      4.4924860695504876       10.79664382377311      1.7911571999875668
   130   1      2.9739617113866279      8.6967909354001875      1.7911571999934093
   131   1      4.2433007556156435      12.688877456745502      3.5823144027578837
   132   1      2.1715895786405475      13.825985990566124      3.5823144027405154
   133   1      2.4947901296252457       12.20175534761961      1.7911571999683957
   134   1     0.90432282583091783      10.149762497223008      1.7911571999770968
   135   1     0.37623963329537802      13.476801789466123      1.7911571999876947
   136   1      1.7692409096672796      4.8112666590850637      3.5823144027981386
   137   1      1.4816356482675013      6.6095719633452177      1.7911572000012044
   138   1      16.462528621605067      15.000000000016144      1.7911571999596207
   139   1      9.3259243571533297      16.757376940230415       5.373471605533199
   140   1      9.9695305783776291      20.169339073231868      5.3734716055244105
   141   1      9.6437681960375752      18.436912388408047 -2.8357648396322506e-09
   142   1       10.61072022061221      23.697968298816619      5.3734716055157064
   143   1      10.303444357414222      21.922499549624973 -2.8404356109233141e-09
   144   1      5.8237508662724187      16.937540933279564      5.3734716055305496
   145   1      7.5350631064157891      16.835134007838178 -2.8315315357190197e-09
   146   1      7.8363107841236532      18.680528963709861      5.3734716055285867
   147   1      6.4618177937070547      20.771616978445081      5.3734716055316172
   148   1      8.1980222736879576      20.475226160540274 -2.8342789887165144e-09
   149   1      6.1598210334046364      18.922442527288752 -2.8307933158436339e-09
   150   1      8.5287937697004175      22.248860598423306      5.3734716055247906
   151   1      7.0626139691608492      24.324060266746415      5.3734716055289935
   152   1      8.8387700655121044      24.014985324596296 -2.8402860442371153e-09
   153   1       6.762079694917869      22.555326910808219 -2.8299024934223837e-09
   154   1      2.4947901296076873      17.798244652367003      5.3734716055354976
   155   1      4.2433007556144613      17.311122543243386 -2.8304624071400681e-09
   156   1      2.1715895786504849       16.17401400946801 -2.8364155255539408e-09
   157   1       4.492486069556616      19.203356176227885      5.3734716055340463
   158   1      2.9739617113644536      21.303209064583598      5.3734716055423517
   159   1      4.7289376675600607       21.03530699622516 -2.8242039824391445e-09
   160   1      2.7265416330448673      19.519076923563802 -2.8268209946663347e-09
   161   1      4.9987597488751403      22.835971530076193      5.3734716055390352
   162   1      3.5265298922885568      24.902689384135471      5.3734716055466336
   163   1      5.2901737530166235      24.618197062617867 -2.8224444993722032e-09
   164   1      3.2403084250501104      23.105686989974231 -2.8153746905779494e-09
   165   1     0.37623963331630744        16.5231982106217      5.3734716055609786
   166   1      20.537444629930015      18.436912388373514      5.3734716055379561
   167   1     0.59941662103117355      18.168496753711679 -2.8391708717865668e-09
   168   1      20.219600791011445      16.757376940309314 -2.8376834017456761e-09
   169   1      0.9043228258215581      19.850237502785632      5.3734716055417326
   170   1      21.197120791294182      21.922499549599252      5.3734716055460536
   171   1      1.1934467586496069      21.600713881603156 -2.8167841390254304e-09
   172   1      20.863207012256094      20.169339073244942 -2.8232462699099253e-09
   173   1      1.4816356482265223      23.390428036630908      5.3734716055500646
   174   1      1.7692409096108548      25.188733340884937 -2.8100198389088721e-09
   175   1      21.504396654497743      23.697968298809229   -2.81104909653088e-09
   176   1      18.428739540293645      16.835134007866316      5.3734716055318632
   177   1      17.053497467322995      18.922442527286336      5.3734716055318223
   178   1       18.72998721799863      18.680528963693178 -2.8283004702767722e-09
   179   1      16.717427300176603       16.93754093328144 -2.8326498452245561e-09
   180   1      19.091698707551082      20.475226160549511      5.3734716055386258
   181   1      17.655756128818165      22.555326910810123      5.3734716055358946
   182   1      19.422470203578438      22.248860598408697 -2.8187425720957996e-09
   183   1      17.355494227614152      20.771616978463214 -2.8266141514277755e-09
   184   1      19.732446499409072      24.014985324606357      5.3734716055446476
   185   1      17.956290403074906      24.324060266773415  -2.825336661680432e-09
   186   1      13.065266012547491      16.174014009426543      5.3734716055260323
   187   1       15.13697718945965      17.311122543254811      5.3734716055278904
   188   1      13.620218066944076      19.519076923549989      5.3734716055251788
   189   1      15.386162503381428      19.203356176216573 -2.8327468915385375e-09
   190   1      13.388466563562766      17.798244652431606 -2.8378711190683414e-09
   191   1      15.622614101440691      21.035306996262364      5.3734716055293745
   192   1      14.133984858969173      23.105686989996542      5.3734716055200682
   193   1      15.892436182772057      22.835971530096344 -2.8332671366899236e-09
   194   1      13.867638145282159      21.303209064618983 -2.8371790442598745e-09
   195   1      16.183850186934528      24.618197062656492      5.3734716055231768
   196   1      14.420206326211826      24.902689384173499 -2.8471411165576794e-09
   197   1      11.269916067150993      16.523198210505683 -2.8399233602023817e-09
   198   1      11.493093054922964      18.168496753772985       5.373471605531603
   199   1      11.797999259716244      19.850237502772245 -2.8385408297106032e-09
   200   1      12.087123192561952      21.600713881641298      5.3734716055206917
   201   1      12.375312082139109       23.39042803665339 -2.8452209353190985e-09
   202   1      12.662917343521039      25.188733340915633       5.373471605507687
   203   1      18.319234488132448      15.000000000014523 -2.8322521476083444e-09
   204   1    0.054474483320145463      14.999999999939689 -2.8726967808332376e-09
   205   1      10.948150917206885      15.000000000111868      5.3734716055553156
   206   1      20.105069946395624      14.999999999995794      5.3734716055435561
   207   1      5.5688521877058603      14.999999999998806 -2.8282972320264619e-09
   208   1      7.4255580542423614      15.000000000003354      5.3734716055371585
   209   1      9.2113935124987822      15.000000000030695  -2.827069125596348e-09
   210   1       3.729275753315076      15.000000000025324      5.3734716055287901
   211   1      14.622952187200287      15.000000000002956 -2.8263452754567133e-09
   212   1      21.504396654541544      6.3020317011687013  -2.785633385385913e-09
   213   1      20.863207012282469      9.8306609267683172 -2.8098368777663506e-09
   214   1      21.197120791328068      8.0775004503854007      5.3734716055640384
   215   1      20.219600791061854      13.242623059788031 -2.8328216748816369e-09
   216   1      20.537444629948322      11.563087611624411      5.3734716055450269
   217   1      17.956290403116327      5.6759397332200336 -2.7673224966166773e-09
   218   1      19.732446499451274      5.9850146753786788      5.3734716055808525
   219   1      19.422470203616911       7.751139401581213 -2.7886385828690291e-09
   220   1      17.355494227651644      9.2283830215609015 -2.7890760502468626e-09
   221   1      19.091698707581305      9.5247738394680397      5.3734716055610168
   222   1      17.655756128859345      7.4446730891881998      5.3734716055834726
   223   1      18.729987218000936      11.319471036299191  -2.811014082949402e-09
   224   1      16.717427300196821      13.062459066751103 -2.8170291329004561e-09
   225   1      18.428739540299581      13.164865992175834      5.3734716055400691
   226   1      17.053497467355388      11.077557472732053      5.3734716055584073
   227   1      14.420206326251318      5.0973106158296275 -2.7399294288760909e-09
   228   1      16.183850186973693       5.381802937343636      5.3734716056069862
   229   1      15.892436182813167      7.1640284699078762 -2.7646769473086292e-09
   230   1      13.867638145316942       8.696790935400017  -2.771002160922199e-09
   231   1      15.622614101475349      8.9646930037580859      5.3734716055805061
   232   1      14.133984859009979      6.8943130100109471      5.3734716056069614
   233   1      15.386162503419101      10.796643823795975 -2.7959486293581653e-09
   234   1      13.388466563557254      12.201755347614693 -2.8023868781466233e-09
   235   1      15.136977189454493      12.688877456784411      5.3734716055505505
   236   1      13.620218066976207      10.480923076457088       5.373471605571968
   237   1       13.06526601259162      13.825985990555495      5.3734716055564737
   238   1      1.1934467586752324      8.3992861183779866 -2.7991589497593638e-09
   239   1     0.59941662103882498      11.831503246279965 -2.8335726453676192e-09
   240   1         12.662917343561      4.8112666590843531      5.3734716056300531
   241   1      12.375312082178086      6.6095719633518399 -2.7446017180969875e-09
   242   1      10.303444357444324      8.0775004503872339 -2.7575275989911326e-09
   243   1      12.087123192594357      8.3992861183745475       5.373471605596742
   244   1       10.61072022065046      6.3020317011833527      5.3734716056200105
   245   1      11.797999259746073      10.149762497225396 -2.7839709486329535e-09
   246   1      9.6437681960481729      11.563087611629712 -2.7971178401107643e-09
   247   1      11.493093054936807      11.831503246269904      5.3734716055649026
   248   1      9.9695305783971762      9.8306609267629028       5.373471605583549
   249   1      11.269916067194888      13.476801789411411 -2.8224158610960234e-09
   250   1      9.3259243570970458      13.242623059678067      5.3734716055529033
   251   1      8.8387700655540051      5.9850146753968545 -2.7406818160965838e-09
   252   1      6.7620796949516038      7.4446730891911557 -2.7605947280114302e-09
   253   1      8.5287937697298197      7.7511394015838846      5.3734716056038296
   254   1      7.0626139692105898      5.6759397332386499      5.3734716056127665
   255   1      8.1980222737050852      9.5247738394531893 -2.7752243333499887e-09
   256   1      6.1598210334077068      11.077557472713607 -2.7947045340671449e-09
   257   1      7.8363107841554971      11.319471036328451      5.3734716055663103
   258   1      6.4618177937226378      9.2283830215442038      5.3734716055827816
   259   1       7.535063106420659      13.164865992149828 -2.8133049426531697e-09
   260   1      5.8237508662702391      13.062459066719498      5.3734716055457277
   261   1      5.2901737530720983      5.3818029373605327 -2.7574607088831641e-09
   262   1      3.2403084250895509      6.8943130100065844 -2.7791013285337835e-09
   263   1      4.9987597489112758      7.1640284699131769      5.3734716055905762
   264   1      3.5265298923470292      5.0973106158372303       5.373471605592159
   265   1      4.7289376675777843      8.9646930037637702 -2.7845229691155074e-09
   266   1      2.7265416330495875      10.480923076437364 -2.8099753129671079e-09
   267   1      4.4924860695504876       10.79664382377311      5.3734716055612237
   268   1      2.9739617113866279      8.6967909354001875       5.373471605567067
   269   1      4.2433007556156435      12.688877456745502 -2.8157723881941615e-09
   270   1      2.1715895786405475      13.825985990566124 -2.8331414520997621e-09
   271   1      2.4947901296252457       12.20175534761961      5.3734716055420524
   272   1     0.90432282583091783      10.149762497223008      5.3734716055507539
   273   1     0.37623963329537802      13.476801789466123      5.3734716055613516
   274   1      1.7692409096672796      4.8112666590850637 -2.7755187105422436e-09
   275   1      1.4816356482675013      6.6095719633452177      5.3734716055748617
   276   1      16.462528621605067      15.000000000016144      5.3734716055332772
