(written by ASE)

100 atoms
1 atom types

0.0      8.0146695175546245  xlo xhi
0.0                      30  ylo yhi
0.0      7.1646288111473151  zlo zhi

Atoms # atomic

     1   1     0.18096671987446597      18.437649615289629      1.7911570687539995
     2   1      7.4020959790223797      16.625336570384945      3.5823143404198032
     3   1      3.3947612157985829      16.625336564152917      1.7911571384859546
     4   1      4.9802975207402387      16.160094772443713      3.5823143325583726
     5   1      5.8408835108062824      17.593729403157695      1.7911570991230465
     6   1      5.0135162263456738       20.01396739494696      1.7911570390448561
     7   1      6.6154383535854784      19.173520099084101      3.5823142582894465
     8   1      4.1883014840016637      18.437649610594832      3.5823142742287364
     9   1      7.4084305728065871      20.827102325329321      1.7911570131505288
    10   1      6.6105226999201374      23.245147665233688       1.791156944389396
    11   1     0.20065457213460741      22.436722353343555      3.5823141758967703
    12   1      5.8113222173386188      21.620526573501394      3.5823141906531228
    13   1      7.4130895994729959      24.860702645120568      3.5823141120125732
    14   1     0.97296276871131582      16.160094767226354      1.7911571286484762
    15   1      1.8335487504669497      17.593729396127088      3.5823143023102442
    16   1      2.6081035941948629      19.173520098555542      1.7911570569234008
    17   1      1.8039874587307496      21.620526586738734      1.7911569855204168
    18   1      3.4010958171441028      20.827102318939367      3.5823142138452737
    19   1      1.0061814635467869      20.013967394032562      3.5823142407055477
    20   1      4.2079893257066407      22.436722349183924      1.7911569691326219
    21   1      3.4057548461705864      24.860702633553359       1.791156912067847
    22   1      5.0089257596580152      24.050598616783816      3.5823141334795765
    23   1       2.603187940309668      23.245147665812908      3.5823141514563068
    24   1      1.0015910046718912       24.05059860730897       1.791156933822309
    25   1       7.180633597165472      13.318039086000567  2.1016138874901957e-07
    26   1      6.3981243054449202      14.994512939087244      1.7911572622590375
    27   1       7.189424294017682      5.1392973548794316  2.5503713541929038e-07
    28   1       5.587112875201993      8.3777615011655371  2.2988828251185607e-07
    29   1      7.1857216834468938      9.1736933218711982      1.7911574429801715
    30   1      6.3870567303154333      6.7547936668876218      1.7911574532301109
    31   1      6.3897276984301232      10.819476025628617  2.4141904047191542e-07
    32   1      3.9689539779041043      11.567440985283824  2.3893808687334109e-07
    33   1      5.6119913935118646      12.416819923574522      1.7911574356472353
    34   1      4.7897235395392137       9.988576729332209       1.791157447350842
    35   1      4.7531912915182319      13.870579763099002    2.42343541607149e-07
    36   1      2.3907895414632248       14.99451293303963  6.4442707500493914e-08
    37   1      3.1732988469674899      13.318039087235931      1.7911574152954282
    38   1      4.7851262508227794      5.9489277671390681  2.4707557573670484e-07
    39   1      2.3797219696459946      6.7547936778948809  2.5024907814263495e-07
    40   1      3.9843001104785833      7.5638006448933623      1.7911574466576088
    41   1      3.1820895303696064      5.1392973617035409      1.7911574582981622
    42   1       3.178386928149314       9.173693327520084  2.3939895516345444e-07
    43   1      0.7823887837276402      9.9885767293011867   2.473404958814275e-07
    44   1      2.3823929405575823      10.819476021258552      1.7911574423585179
    45   1      1.5797781190649351      8.3777614983716262      1.7911574399853223
    46   1      1.6046566253265973      12.416819919071372  2.3288774394052469e-07
    47   1     0.74585653427617504      13.870579760610013      1.7911574464075426
    48   1      7.9762887385463577       11.56744098883334      1.7911574392165206
    49   1     0.77779148778075147      5.9489277599302426      1.7911574497361644
    50   1      7.9916348689769006      7.5638006403337954  2.4004444106231864e-07
    51   1     0.18096671987446597      18.437649615289629      5.3734714743276575
    52   1      7.4020959790223797      16.625336570384945 -6.5153854894919891e-08
    53   1      3.3947612157985829      16.625336564152917      5.3734715440596119
    54   1      4.9802975207402387      16.160094772443713 -7.3015285651619347e-08
    55   1      5.8408835108062824      17.593729403157695      5.3734715046967034
    56   1      5.0135162263456738       20.01396739494696      5.3734714446185139
    57   1      6.6154383535854784      19.173520099084101  -1.472842117418295e-07
    58   1      4.1883014840016637      18.437649610594832 -1.3134492055460964e-07
    59   1      7.4084305728065871      20.827102325329321      5.3734714187241863
    60   1      6.6105226999201374      23.245147665233688      5.3734713499630518
    61   1     0.20065457213460741      22.436722353343555 -2.2967688669814222e-07
    62   1      5.8113222173386188      21.620526573501394 -2.1492053573646884e-07
    63   1      7.4130895994729959      24.860702645120568 -2.9356108365528888e-07
    64   1     0.97296276871131582      16.160094767226354      5.3734715342221326
    65   1      1.8335487504669497      17.593729396127088 -1.0326341364989691e-07
    66   1      2.6081035941948629      19.173520098555542      5.3734714624970588
    67   1      1.8039874587307496      21.620526586738734      5.3734713910940748
    68   1      3.4010958171441028      20.827102318939367 -1.9172838252472981e-07
    69   1      1.0061814635467869      20.013967394032562 -1.6486810957221527e-07
    70   1      4.2079893257066407      22.436722349183924      5.3734713747062797
    71   1      3.4057548461705864      24.860702633553359      5.3734713176415045
    72   1      5.0089257596580152      24.050598616783816 -2.7209408117592157e-07
    73   1       2.603187940309668      23.245147665812908  -2.541173504920475e-07
    74   1      1.0015910046718912       24.05059860730897      5.3734713393959659
    75   1       7.180633597165472      13.318039086000567      3.5823146157350463
    76   1      6.3981243054449202      14.994512939087244      5.3734716678326944
    77   1       7.189424294017682      5.1392973548794316      3.5823146606107925
    78   1       5.587112875201993      8.3777615011655371      3.5823146354619397
    79   1      7.1857216834468938      9.1736933218711982      5.3734718485538284
    80   1      6.3870567303154333      6.7547936668876218      5.3734718588037662
    81   1      6.3897276984301232      10.819476025628617      3.5823146469926979
    82   1      3.9689539779041043      11.567440985283824      3.5823146445117438
    83   1      5.6119913935118646      12.416819923574522      5.3734718412208924
    84   1      4.7897235395392137       9.988576729332209      5.3734718529244994
    85   1      4.7531912915182319      13.870579763099002      3.5823146479171983
    86   1      2.3907895414632248       14.99451293303963      3.5823144700163647
    87   1      3.1732988469674899      13.318039087235931       5.373471820869085
    88   1      4.7851262508227794      5.9489277671390681      3.5823146526492327
    89   1      2.3797219696459946      6.7547936778948809       3.582314655822735
    90   1      3.9843001104785833      7.5638006448933623      5.3734718522312654
    91   1      3.1820895303696064      5.1392973617035409       5.373471863871818
    92   1       3.178386928149314       9.173693327520084       3.582314644972612
    93   1      0.7823887837276402      9.9885767293011867      3.5823146529141527
    94   1      2.3823929405575823      10.819476021258552      5.3734718479321746
    95   1      1.5797781190649351      8.3777614983716262      5.3734718455589787
    96   1      1.6046566253265973      12.416819919071372      3.5823146384614013
    97   1     0.74585653427617504      13.870579760610013      5.3734718519811997
    98   1      7.9762887385463577       11.56744098883334      5.3734718447901768
    99   1     0.77779148778075147      5.9489277599302426      5.3734718553098215
   100   1      7.9916348689769006      7.5638006403337954      3.5823146456180979
