(written by ASE)

144 atoms
1 atom types

0.0      11.323756553211647  xlo xhi
0.0                      30  ylo yhi
0.0      7.1646288111473151  zlo zhi

Atoms # atomic

     1   1      1.7037325688171052      18.868191585486343      2.2491244274215885
     2   1      1.1269049436097833      17.140111107411073     0.45796683479335659
     3   1      2.2625309576070589      20.595531005472736     0.45796668848686295
     4   1      8.4903642140105564      16.564446845077057      2.2491254639381952
     5   1      10.785077704262504      17.730965389820298      2.2491249836080276
     6   1      9.6303918440888712      20.015565271696403      2.2491247620897452
     7   1    0.004117232748915972      19.437881945835457     0.45796638810798751
     8   1      9.0409686855086413      18.327902804423175      0.4579661655593259
     9   1     0.56813799890312966      21.157001309988061      2.2491244497973018
    10   1      10.759427105195265      23.444824102864089      2.2491241953308898
    11   1      1.1329087088770329      22.876091399851134     0.45796675342143062
    12   1      10.194293285082265      21.728426523704599     0.45796654109960294
    13   1       1.700279421132187      24.589255353272733      2.2491240092122089
    14   1   0.0013420662073386407      25.160877760224025     0.45796686797031938
    15   1      5.1231993582614042      17.730965506982898      2.2491244986594761
    16   1      6.7887834528917086      17.140111001958374     0.45796649214406282
    17   1      7.3656108585917073       18.86819141826858      2.2491247803278722
    18   1      6.2300163375541402      21.157001586014616      2.2491244335403811
    19   1      7.9244093695752866      20.595531251307278     0.45796644177215856
    20   1      5.6659953629421214       19.43788181802293     0.45796655252233304
    21   1      8.4950920473960689      22.303297354810496       2.249124379916084
    22   1      7.3621577438875052      24.589255651991408      2.2491240503844883
    23   1      9.0611512399871348      24.016481606566316     0.45796677614868009
    24   1       6.794786838278422      22.876091105526058     0.45796672736546623
    25   1      2.8284860388901643      16.564446856344517      2.2491238708117693
    26   1      3.3790905263634987       18.32790294122718      0.4579668615187466
    27   1       3.968513547804323      20.015565021230145      2.2491243654410815
    28   1      2.8332138279934331      22.303297676878088      2.2491242087672716
    29   1      4.5324151635758403      21.728426782002686     0.45796673458691733
    30   1      5.0975487577655159      23.444823785312991      2.2491241121432464
    31   1       5.663220487472854      25.160878000619675     0.45796689954333142
    32   1      3.3992728024809922      24.016481328529579     0.45796687613661208
    33   1      10.211027842086196      13.839953686311404     0.45796687269396269
    34   1      10.785089266092578      12.269034580943384      2.2491244906284935
    35   1      10.211016400147258      16.160049945306056     0.45796639838591457
    36   1      9.0611726316083328      5.9835194843453507     0.45796680794278705
    37   1      10.759447466336946      6.5551771699672656      2.2491245893769913
    38   1      10.194313324624044      8.2715744223063723     0.45796690491690384
    39   1      7.9244265762509993      9.4044687085062861     0.45796696396983039
    40   1      9.6304062142757854      9.9844326300135293       2.249124546844302
    41   1      8.4951114653457331       7.696702219841697      2.2491245855296036
    42   1      9.0409825353919313      11.672097310407636     0.45796683694976908
    43   1      6.7887968851761809       12.85989473434573     0.45796700411106339
    44   1      8.4903799624257665      13.435561519405638      2.2491251578481388
    45   1      7.3656249397963904      11.131812431967077      2.2491244760607856
    46   1      7.9272109793909342      15.000004941789484     0.45796599881502831
    47   1      6.1081364187947669      15.000005823028843      2.2491244247369409
    48   1      5.6632448737510828      4.8391219993803247     0.45796685515971552
    49   1      7.3621794970151742      5.4107448646061158      2.2491245658086574
    50   1      6.7948060639812331      7.1239104009501659     0.45796689761556725
    51   1      4.5324353638955124      8.2715744419632102     0.45796709436894961
    52   1      6.2300348610640954      8.8430010357233044      2.2491244126870371
    53   1      5.0975695182100065       6.555177411135773      2.2491245003130893
    54   1      5.6660111528113752      10.562120106570774     0.45796726599776527
    55   1        3.37910438525972      11.672097375433708     0.45796753855609773
    56   1      5.1232109695589703      12.269034578632912       2.249124015973178
    57   1      3.9685281160523749      9.9844327222834721      2.2491241520093315
    58   1       4.549149509338525      13.839953593684371      0.4579674558765105
    59   1      2.2653327144633568      15.000004586805673     0.45796769005555016
    60   1      4.5491380511635366      16.160049951266998     0.45796696953594868
    61   1      2.8285016365460591      13.435561615778823      2.2491235682365822
    62   1      3.3992939527085784       5.983519523391962        0.45796690283489
    63   1      1.1329281617966096      7.1239104118327532     0.45796692976835279
    64   1      2.8332329179946756      7.6967020503585815      2.2491244148301668
    65   1      1.7003015450216998      5.4107451408858651      2.2491245267161419
    66   1      2.2625480466232264      9.4044686609344836     0.45796721377379462
    67   1   0.0041330160157916273      10.562120064171097     0.45796709753833958
    68   1      1.7037465347999816      11.131812312279337      2.2491241262677439
    69   1     0.56815682709372128       8.843001183858533      2.2491244334635101
    70   1      1.1269186872796713      12.859894856021072     0.45796734450213838
    71   1     0.44625812525487368      15.000005822744455      2.2491242441049395
    72   1   0.0013661656089764939      4.8391220552825871     0.45796682878957862
    73   1      1.7037325688171052      18.868191585486343      5.8314388329952465
    74   1      1.1269049436097833      17.140111107411073      4.0402812403670136
    75   1      2.2625309576070589      20.595531005472736      4.0402810940605205
    76   1      8.4903642140105564      16.564446845077057      5.8314398695118532
    77   1      10.785077704262504      17.730965389820298      5.8314393891816838
    78   1      9.6303918440888712      20.015565271696403      5.8314391676634019
    79   1    0.004117232748915972      19.437881945835457      4.0402807936816441
    80   1      9.0409686855086413      18.327902804423175      4.0402805711329828
    81   1     0.56813799890312966      21.157001309988061      5.8314388553709584
    82   1      10.759427105195265      23.444824102864089      5.8314386009045451
    83   1      1.1329087088770329      22.876091399851134      4.0402811589950876
    84   1      10.194293285082265      21.728426523704599      4.0402809466732608
    85   1       1.700279421132187      24.589255353272733      5.8314384147858664
    86   1   0.0013420662073386407      25.160877760224025      4.0402812735439761
    87   1      5.1231993582614042      17.730965506982898      5.8314389042331332
    88   1      6.7887834528917086      17.140111001958374      4.0402808977177198
    89   1      7.3656108585917073       18.86819141826858      5.8314391859015284
    90   1      6.2300163375541402      21.157001586014616      5.8314388391140373
    91   1      7.9244093695752866      20.595531251307278      4.0402808473458149
    92   1      5.6659953629421214       19.43788181802293      4.0402809580959893
    93   1      8.4950920473960689      22.303297354810496      5.8314387854897403
    94   1      7.3621577438875052      24.589255651991408      5.8314384559581454
    95   1      9.0611512399871348      24.016481606566316      4.0402811817223361
    96   1       6.794786838278422      22.876091105526058      4.0402811329391231
    97   1      2.8284860388901643      16.564446856344517      5.8314382763854269
    98   1      3.3790905263634987       18.32790294122718      4.0402812670924035
    99   1       3.968513547804323      20.015565021230145      5.8314387710147395
   100   1      2.8332138279934331      22.303297676878088      5.8314386143409278
   101   1      4.5324151635758403      21.728426782002686       4.040281140160574
   102   1      5.0975487577655159      23.444823785312991      5.8314385177169026
   103   1       5.663220487472854      25.160878000619675      4.0402813051169888
   104   1      3.3992728024809922      24.016481328529579      4.0402812817102696
   105   1      10.211027842086196      13.839953686311404       4.040281278267619
   106   1      10.785089266092578      12.269034580943384      5.8314388962021511
   107   1      10.211016400147258      16.160049945306056       4.040280803959571
   108   1      9.0611726316083328      5.9835194843453507      4.0402812135164448
   109   1      10.759447466336946      6.5551771699672656      5.8314389949506493
   110   1      10.194313324624044      8.2715744223063723      4.0402813104905615
   111   1      7.9244265762509993      9.4044687085062861      4.0402813695434867
   112   1      9.6304062142757854      9.9844326300135293      5.8314389524179591
   113   1      8.4951114653457331       7.696702219841697      5.8314389911032611
   114   1      9.0409825353919313      11.672097310407636      4.0402812425234265
   115   1      6.7887968851761809       12.85989473434573      4.0402814096847202
   116   1      8.4903799624257665      13.435561519405638      5.8314395634217959
   117   1      7.3656249397963904      11.131812431967077      5.8314388816344422
   118   1      7.9272109793909342      15.000004941789484      4.0402804043886844
   119   1      6.1081364187947669      15.000005823028843      5.8314388303105984
   120   1      5.6632448737510828      4.8391219993803247      4.0402812607333729
   121   1      7.3621794970151742      5.4107448646061158      5.8314389713823136
   122   1      6.7948060639812331      7.1239104009501659      4.0402813031892251
   123   1      4.5324353638955124      8.2715744419632102      4.0402814999426075
   124   1      6.2300348610640954      8.8430010357233044      5.8314388182606933
   125   1      5.0975695182100065       6.555177411135773      5.8314389058867464
   126   1      5.6660111528113752      10.562120106570774      4.0402816715714209
   127   1        3.37910438525972      11.672097375433708      4.0402819441297551
   128   1      5.1232109695589703      12.269034578632912      5.8314384215468342
   129   1      3.9685281160523749      9.9844327222834721      5.8314385575829872
   130   1       4.549149509338525      13.839953593684371      4.0402818614501683
   131   1      2.2653327144633568      15.000004586805673      4.0402820956292063
   132   1      4.5491380511635366      16.160049951266998      4.0402813751096049
   133   1      2.8285016365460591      13.435561615778823      5.8314379738102398
   134   1      3.3992939527085784       5.983519523391962      4.0402813084085469
   135   1      1.1329281617966096      7.1239104118327532      4.0402813353420095
   136   1      2.8332329179946756      7.6967020503585815      5.8314388204038243
   137   1      1.7003015450216998      5.4107451408858651      5.8314389322897977
   138   1      2.2625480466232264      9.4044686609344836      4.0402816193474509
   139   1   0.0041330160157916273      10.562120064171097      4.0402815031119967
   140   1      1.7037465347999816      11.131812312279337      5.8314385318414006
   141   1     0.56815682709372128       8.843001183858533      5.8314388390371663
   142   1      1.1269186872796713      12.859894856021072      4.0402817500757955
   143   1     0.44625812525487368      15.000005822744455      5.8314386496785984
   144   1   0.0013661656089764939      4.8391220552825871      4.0402812343632357
