(written by ASE)

228 atoms
1 atom types

0.0      17.911572027868289  xlo xhi
0.0                      30  ylo yhi
0.0      7.1646288111473151  zlo zhi

Atoms # atomic

     1   1       1.644605769712697      16.152969136948357      1.7911654732888185
     2   1     0.17518472130349697      13.250546708410084  8.9921228767513523e-06
     3   1      14.472922586113185      15.000000043335305      1.7911658753554405
     4   1      15.662138174129632      13.688251875370085  8.7891736546316189e-06
     5   1      13.128195408656927      13.740758200448937  8.7870908679931607e-06
     6   1      17.131362044183408      15.000000028942111      1.7911658260346521
     7   1      16.727443696332713      17.805922232083162      1.7911654771211079
     8   1      0.1751832543000057       16.74945383797035  8.4684636906852468e-06
     9   1      15.662136898722764      16.311748381817154  8.4886866581860053e-06
    10   1      1.2643263997924143      18.497375565867088      1.7911652979529713
    11   1     0.92093754959681051      20.942405579539013      1.7911650906683014
    12   1         17.758248005296      19.377278156421937  8.1236238634676895e-06
    13   1      9.1309708053652408      13.250546740822244      1.7911662547414815
    14   1      11.899792098866858      15.000000253296633      1.7911659980455248
    15   1      11.690226048413271       17.46116643467434      1.7911655918321949
    16   1      13.128193983677612       16.25924180505487   8.456573529543993e-06
    17   1      10.600391915297998      16.152968961705298  8.3519519533370966e-06
    18   1      14.234718638624972      17.570422945602132       1.791165572718735
    19   1      13.858881501811949      20.126757017818676       1.791165262662616
    20   1      15.299803288016225      18.951346801561442  8.1916310314830638e-06
    21   1      12.781128186526203      18.770689908512082  8.1561137560567843e-06
    22   1      16.354718013492228      20.424760116626402      1.7911651957888741
    23   1      15.990921912291491      22.998689326743147      1.7911648975638346
    24   1      17.410953497662057      21.938377076694962  7.8168617841543844e-06
    25   1       14.92711561814305      21.537071458832912  7.8781557980917466e-06
    26   1     0.57276507005707911      23.436137870831288       1.791164825039435
    27   1      1.6539900870952771      24.883250903561361  7.4712456846856357e-06
    28   1      17.057402144026241      24.480066759427274   7.506748816142928e-06
    29   1      4.1724093034047387      13.740758274152981       1.791165979743091
    30   1      6.7063521765086076      13.688251937075179      1.7911660733189791
    31   1      6.7063508929713302      16.311748459635083      1.7911657683230602
    32   1       8.175576046398966      15.000000092213853  8.7325349937648369e-06
    33   1      5.5171365944613395      15.000000135827605  8.7500513461463467e-06
    34   1      9.1309692034889416       16.74945394268542      1.7911656986743096
    35   1      8.8024620904882394      19.377278158652018      1.7911653802195022
    36   1      10.220112307764149      18.497375819659027   8.155821421188522e-06
    37   1      7.7716577118804038      17.805922293500885   8.367711188294714e-06
    38   1      11.320816295784876      19.904454310993486      1.7911652726362846
    39   1      10.965488662544972      22.382093989723899      1.7911649967858168
    40   1      12.411298731661606      21.277450445120792  7.8926179164692806e-06
    41   1      9.8767236440100685      20.942405454079108  7.9441390560202628e-06
    42   1      13.490184067365627      22.670918081477879      1.7911649529802809
    43   1       13.12677002934228      25.208179209501822      1.7911646519229447
    44   1      14.561762751854111      24.097127421832141  7.5713439934210241e-06
    45   1      12.049303824054387      23.791392988659567  7.6203935770794159e-06
    46   1      2.9440061010740073      14.999999948947249  8.8267290077934492e-06
    47   1      4.1724080886377486      16.259241874890364      1.7911656633204016
    48   1      3.8253420982061677      18.770689902436175      1.7911653599165165
    49   1      5.2789326058055908      17.570422969888341  8.4445941818282385e-06
    50   1      2.7344399807520667      17.461166685919324   8.418244054733955e-06
    51   1      6.3440172659960909      18.951346873245569      1.7911654583448162
    52   1      5.9713296061545318      21.537071466039293      1.7911651508800768
    53   1      7.3989319736382644       20.42476016650258  8.0820248428845785e-06
    54   1      4.9030954853318915      20.126757073452978  8.1205401059308542e-06
    55   1      8.4551674684962226      21.938377112566485      1.7911650904624201
    56   1      8.1016161644308777      24.480066720346287      1.7911647923250269
    57   1      9.5285510918378495      23.436137912197239  7.6862000081234502e-06
    58   1      7.0351359253708052      22.998689308885901  7.7820844727048686e-06
    59   1      10.609776119294924      24.883250906910035      1.7911647116210352
    60   1      2.3650303253627007      19.904454213382195  8.0649235479744119e-06
    61   1      3.4555127177101901      21.277450465166311      1.7911651036222163
    62   1      3.0935177765654385      23.791392980286247      1.7911648248651799
    63   1      4.5343980318152957      22.670918071747394  7.8008998647823659e-06
    64   1      2.0097025927476349      22.382094022106884  7.7743529044884033e-06
    65   1      5.6059767317109568      24.097127398057722      1.7911648419230097
    66   1      4.1709840044505109      25.208179178602165  7.4829756342023567e-06
    67   1      1.6446074494144871      13.847030523460575      1.7911659516045495
    68   1      10.600393317801428      13.847030355912963  8.8688168678632909e-06
    69   1      17.758250806059966      10.622721985541077  9.1135543815405831e-06
    70   1      16.727445955531234      12.194077938311025      1.7911661154876741
    71   1       17.05740655283353      5.5199332687167413  9.2615074496337657e-06
    72   1      17.410957070283096      8.0616229165672877  9.2118257815754156e-06
    73   1      14.927119121780821      8.4629286330534512  9.1975602939057202e-06
    74   1       16.35472113846081         9.5752399515533      1.7911663208906765
    75   1      15.990925890363094      7.0013107385874918       1.791166440724115
    76   1      15.299805953292536      11.048653306452991  9.0321270448893835e-06
    77   1       12.78113064846591      11.229310105108453  9.0628835233384859e-06
    78   1      14.234720692042441      12.429577185996337      1.7911661627340882
    79   1      13.858884571764838      9.8732429672474353      1.7911663675903644
    80   1      2.7344420748101594      12.538833273957636  9.0927727322739916e-06
    81   1      14.561767044920288      5.9028726459917777  9.2771681405866312e-06
    82   1      12.049307972608229      6.2086069930118128  9.3153818130356963e-06
    83   1       13.49018790168406      7.3290819643430041      1.7911664743700819
    84   1      13.126774652185729       4.791820833089389      1.7911665146441818
    85   1      12.411302164422427      8.7225494617644159  9.2367020382681588e-06
    86   1      9.8767268062494171      9.0575942347246183  9.2623968701962155e-06
    87   1      11.320819271699172      10.095545682297143      1.7911664352989549
    88   1      10.965492343493887       7.617905817420322      1.7911665183342618
    89   1      10.220114863535494      11.502624099869465  9.1234638328780192e-06
    90   1      7.7716599069445227      12.194077947708251  9.0233331259542557e-06
    91   1      8.8024646945814524      10.622721942481917      1.7911664039351731
    92   1      10.609780608347654      5.1167490407805332       1.791166553677052
    93   1      9.5285551390423624      6.5638620298618946   9.341079006457793e-06
    94   1      7.0351398424394231      7.0013107075473471  9.3197935319927942e-06
    95   1      8.4551710756160894      8.0616229264639685      1.7911665084482571
    96   1      8.1016205040406799      5.5199332349396855      1.7911665578671332
    97   1      7.3989351517318305      9.5752399609484371  9.2157969390065102e-06
    98   1      4.9030985626183572      9.8732430122101675  9.1875871889903056e-06
    99   1      6.3440199446825609      11.048653344807633      1.7911662919583862
   100   1      5.9713331010987618      8.4629286190104267       1.791166445226505
   101   1      5.2789347062410714      12.429577203665119  9.0183302618731598e-06
   102   1      11.690228033216183      12.538833012898593      1.7911663076914883
   103   1       3.825344712892627      11.229310102382385       1.791166224847377
   104   1      4.1709886278510284      4.7918207904981784   9.302562412591833e-06
   105   1      5.6059810219576907      5.9028726177100594      1.7911665182052099
   106   1       4.534401894200097      7.3290819479647098  9.2780823298173393e-06
   107   1      2.0097063745712878      7.6179058561635742  9.2454745335464062e-06
   108   1      3.4555161445586546      8.7225494839421174       1.791166394080534
   109   1      3.0935219722742038      6.2086069725627624      1.7911664720445892
   110   1      2.3650332168145343      10.095545598166552  9.1762509454403122e-06
   111   1      1.2643287453437502      11.502623869862248      1.7911662215683439
   112   1     0.92094086620584892       9.057594381890695      1.7911663645502749
   113   1      1.6539945971812626      5.1167490173301644  9.2708243044026993e-06
   114   1     0.57276912586499085       6.563861992461355      1.7911664457148555
   115   1       1.644605769712697      16.152969136948357      5.3734798788624749
   116   1     0.17518472130349697      13.250546708410084      3.5823233976965332
   117   1      14.472922586113185      15.000000043335305      5.3734802809290967
   118   1      15.662138174129632      13.688251875370085      3.5823231947473122
   119   1      13.128195408656927      13.740758200448937      3.5823231926645245
   120   1      17.131362044183408      15.000000028942111      5.3734802316083083
   121   1      16.727443696332713      17.805922232083162      5.3734798826947641
   122   1      0.1751832543000057       16.74945383797035      3.5823228740373474
   123   1      15.662136898722764      16.311748381817154      3.5823228942603151
   124   1      1.2643263997924143      18.497375565867088      5.3734797035266295
   125   1     0.92093754959681051      20.942405579539013      5.3734794962419583
   126   1         17.758248005296      19.377278156421937        3.58232252919752
   127   1      9.1309708053652408      13.250546740822244      5.3734806603151384
   128   1      11.899792098866858      15.000000253296633      5.3734804036191814
   129   1      11.690226048413271       17.46116643467434      5.3734799974058509
   130   1      13.128193983677612       16.25924180505487      3.5823228621471865
   131   1      10.600391915297998      16.152968961705298      3.5823227575256107
   132   1      14.234718638624972      17.570422945602132      5.3734799782923917
   133   1      13.858881501811949      20.126757017818676      5.3734796682362731
   134   1      15.299803288016225      18.951346801561442      3.5823225972046884
   135   1      12.781128186526203      18.770689908512082       3.582322561687413
   136   1      16.354718013492228      20.424760116626402       5.373479601362531
   137   1      15.990921912291491      22.998689326743147      5.3734793031374899
   138   1      17.410953497662057      21.938377076694962      3.5823222224354407
   139   1       14.92711561814305      21.537071458832912       3.582322283729455
   140   1     0.57276507005707911      23.436137870831288      5.3734792306130919
   141   1      1.6539900870952771      24.883250903561361      3.5823218768193414
   142   1      17.057402144026241      24.480066759427274       3.582321912322473
   143   1      4.1724093034047387      13.740758274152981      5.3734803853167481
   144   1      6.7063521765086076      13.688251937075179      5.3734804788926365
   145   1      6.7063508929713302      16.311748459635083      5.3734801738967182
   146   1       8.175576046398966      15.000000092213853      3.5823231381086509
   147   1      5.5171365944613395      15.000000135827605      3.5823231556250033
   148   1      9.1309692034889416       16.74945394268542      5.3734801042479656
   149   1      8.8024620904882394      19.377278158652018      5.3734797857931582
   150   1      10.220112307764149      18.497375819659027       3.582322561395078
   151   1      7.7716577118804038      17.805922293500885      3.5823227732848451
   152   1      11.320816295784876      19.904454310993486      5.3734796782099421
   153   1      10.965488662544972      22.382093989723899      5.3734794023594743
   154   1      12.411298731661606      21.277450445120792      3.5823222981915732
   155   1      9.8767236440100685      20.942405454079108       3.582322349712713
   156   1      13.490184067365627      22.670918081477879      5.3734793585539373
   157   1       13.12677002934228      25.208179209501822      5.3734790574966027
   158   1      14.561762751854111      24.097127421832141      3.5823219769176506
   159   1      12.049303824054387      23.791392988659567      3.5823220259672341
   160   1      2.9440061010740073      14.999999948947249      3.5823232323026648
   161   1      4.1724080886377486      16.259241874890364      5.3734800688940583
   162   1      3.8253420982061677      18.770689902436175      5.3734797654901731
   163   1      5.2789326058055908      17.570422969888341      3.5823228501678388
   164   1      2.7344399807520667      17.461166685919324      3.5823228238177118
   165   1      6.3440172659960909      18.951346873245569      5.3734798639184724
   166   1      5.9713296061545318      21.537071466039293      5.3734795564537325
   167   1      7.3989319736382644       20.42476016650258      3.5823224875985002
   168   1      4.9030954853318915      20.126757073452978      3.5823225261137628
   169   1      8.4551674684962226      21.938377112566485      5.3734794960360759
   170   1      8.1016161644308777      24.480066720346287      5.3734791978986838
   171   1      9.5285510918378495      23.436137912197239      3.5823220917736656
   172   1      7.0351359253708052      22.998689308885901      3.5823221876581299
   173   1      10.609776119294924      24.883250906910035      5.3734791171946927
   174   1      2.3650303253627007      19.904454213382195      3.5823224704972048
   175   1      3.4555127177101901      21.277450465166311      5.3734795091958736
   176   1      3.0935177765654385      23.791392980286247      5.3734792304388366
   177   1      4.5343980318152957      22.670918071747394      3.5823222064735214
   178   1      2.0097025927476349      22.382094022106884      3.5823221799265617
   179   1      5.6059767317109568      24.097127398057722      5.3734792474966664
   180   1      4.1709840044505109      25.208179178602165      3.5823218885492909
   181   1      1.6446074494144871      13.847030523460575      5.3734803571782068
   182   1      10.600393317801428      13.847030355912963      3.5823232743905251
   183   1      17.758250806059966      10.622721985541077      3.5823235191280385
   184   1      16.727445955531234      12.194077938311025      5.3734805210613308
   185   1       17.05740655283353      5.5199332687167413      3.5823236670811065
   186   1      17.410957070283096      8.0616229165672877      3.5823236173994384
   187   1      14.927119121780821      8.4629286330534512      3.5823236031339509
   188   1       16.35472113846081         9.5752399515533      5.3734807264643329
   189   1      15.990925890363094      7.0013107385874918      5.3734808462977712
   190   1      15.299805953292536      11.048653306452991      3.5823234377007021
   191   1       12.78113064846591      11.229310105108453      3.5823234684571803
   192   1      14.234720692042441      12.429577185996337      5.3734805683077447
   193   1      13.858884571764838      9.8732429672474353      5.3734807731640215
   194   1      2.7344420748101594      12.538833273957636      3.5823234983463892
   195   1      14.561767044920288      5.9028726459917777      3.5823236827417975
   196   1      12.049307972608229      6.2086069930118128      3.5823237209554701
   197   1       13.49018790168406      7.3290819643430041       5.373480879943739
   198   1      13.126774652185729       4.791820833089389      5.3734809202178377
   199   1      12.411302164422427      8.7225494617644159      3.5823236422756954
   200   1      9.8767268062494171      9.0575942347246183       3.582323667970527
   201   1      11.320819271699172      10.095545682297143      5.3734808408726122
   202   1      10.965492343493887       7.617905817420322      5.3734809239079189
   203   1      10.220114863535494      11.502624099869465        3.58232352903749
   204   1      7.7716599069445227      12.194077947708251      3.5823234289067831
   205   1      8.8024646945814524      10.622721942481917      5.3734808095088296
   206   1      10.609780608347654      5.1167490407805332      5.3734809592507089
   207   1      9.5285551390423624      6.5638620298618946      3.5823237466526634
   208   1      7.0351398424394231      7.0013107075473471      3.5823237253671896
   209   1      8.4551710756160894      8.0616229264639685       5.373480914021914
   210   1      8.1016205040406799      5.5199332349396855      5.3734809634407901
   211   1      7.3989351517318305      9.5752399609484371       3.582323621370596
   212   1      4.9030985626183572      9.8732430122101675      3.5823235931608464
   213   1      6.3440199446825609      11.048653344807633      5.3734806975320444
   214   1      5.9713331010987618      8.4629286190104267      5.3734808508001617
   215   1      5.2789347062410714      12.429577203665119      3.5823234239039188
   216   1      11.690228033216183      12.538833012898593      5.3734807132651445
   217   1       3.825344712892627      11.229310102382385      5.3734806304210343
   218   1      4.1709886278510284      4.7918207904981784      3.5823237081360695
   219   1      5.6059810219576907      5.9028726177100594      5.3734809237788665
   220   1       4.534401894200097      7.3290819479647098      3.5823236836559866
   221   1      2.0097063745712878      7.6179058561635742      3.5823236510481906
   222   1      3.4555161445586546      8.7225494839421174      5.3734807996541907
   223   1      3.0935219722742038      6.2086069725627624      5.3734808776182463
   224   1      2.3650332168145343      10.095545598166552      3.5823235818246024
   225   1      1.2643287453437502      11.502623869862248      5.3734806271420004
   226   1     0.92094086620584892       9.057594381890695      5.3734807701239324
   227   1      1.6539945971812626      5.1167490173301644      3.5823236763979613
   228   1     0.57276912586499085       6.563861992461355      5.3734808512885133
