(written by ASE)

160 atoms
1 atom types

0.0      12.912523111615782  xlo xhi
0.0                      30  ylo yhi
0.0      7.1646288111473151  zlo zhi

Atoms # atomic

     1   1      12.884930278046358      18.480602876719246      1.3433682338923627
     2   1      11.887704530450625       16.72350571039388      3.1345254032878809
     3   1      7.9621772373695592      17.480921420474715      1.3433682180428466
     4   1      9.4617885296395503      16.286654827907739      3.1345253816045791
     5   1      6.9364293979243268      16.150831990281006      3.1345254065131551
     6   1      10.463344538689922       17.75285218759106      1.3433682103119702
     7   1      9.9468136220489747      20.330887595803205      1.3433682555348259
     8   1      11.416788689308035      19.330184117702089      3.1345254442945771
     9   1      8.9632063008005627      18.853843584668624      3.1345254380678491
    10   1      12.404959130772472      20.917871288141498      1.3433682667028013
    11   1      11.916026978147558      23.400138209931498      1.3433683032644577
    12   1      10.925198634524421      21.866418966864131      3.1345254818968549
    13   1  0.00086174191999487007      24.900817043707832      3.1345255305712798
    14   1      3.0055269688226369      16.286654858867763      1.3433681756572937
    15   1      5.4314429738350141      16.723505730974921      1.3433682049728466
    16   1      4.9605271304124843      19.330184125125214      1.3433682435320042
    17   1      6.4286687314647253      18.480602846011635      3.1345254438132151
    18   1      4.0070829736431532      17.752852218674775      3.1345254155083495
    19   1       7.450040712317147      19.929577035643092      1.3433682566658003
    20   1      6.9532827235214434      22.407394416272496      1.3433682918735401
    21   1      8.4525328453254893      21.376274158068497      3.1345254770632054
    22   1      5.9486975811884442      20.917871268351803      3.1345254728422933
    23   1      9.4425454462166538      22.866908137862936      1.3433682946161698
    24   1      10.430253766857806      24.383445114099345       3.134525521942495
    25   1      7.9509435858497621       23.88782310117486      3.1345255169395565
    26   1     0.48016785631786668      16.150832013108072      1.3433681985628396
    27   1      1.5059156794913948      17.480921455460248      3.1345254184850635
    28   1      2.5069447375706617      18.853843624340016       1.343368233162225
    29   1      1.9962712790213588      21.376274197462664      1.3433682714168764
    30   1      3.4905520623680175       20.33088762084725      3.1345254584733344
    31   1     0.99377914326579242      19.929577076561799      3.1345254557810609
    32   1      4.4689370820200134      21.866418965982575      1.3433682823820945
    33   1      3.9739922134241126      24.383445109937185       1.343368320695979
    34   1      5.4597654305054348       23.40013818462424      3.1345255108404984
    35   1      2.9862838856206571       22.86690815988689      3.1345254992216214
    36   1      6.4571233066143163      24.900817009698102      1.3433683307104385
    37   1     0.49702115890937709      22.407394454924486      3.1345254904865336
    38   1      1.4946820231049649      23.887823133866476      1.3433683108879522
    39   1      11.887704350957904      13.276494185401504       3.134525271234291
    40   1      10.945897761620502      14.999999970154306      1.3433681392044845
    41   1      10.925198325332339       8.133581011782681       3.134525126910479
    42   1      11.916026620131992      6.5998617887385649      1.3433678802488629
    43   1      11.416788440165563      10.669815840621453       3.134525200516848
    44   1      8.9632060462852507      11.146156361185845      3.1345252184070307
    45   1      10.463344304090484      12.247147742192425      1.3433680533974182
    46   1      9.9468133452489997      9.6691123599231616      1.3433679717726981
    47   1      9.4617883647944545      13.713345088503843      3.1345253001141749
    48   1      6.9364292148560578      13.849168022361766      3.1345252767312477
    49   1      8.2845855457758901      14.999999963743562       1.343368138877177
    50   1       7.962177016527483      12.519078545102616      1.3433680470839611
    51   1      10.430253366543056      5.6165548721306777      3.1345250614938505
    52   1      7.9509431963056514      6.1121768709483462      3.1345250738387471
    53   1      9.4425450969979572      7.1330918335721236      1.3433678980815547
    54   1      8.4525325390179837      8.6237257989724014      3.1345251417348599
    55   1      5.9486972916573899      9.0821287132203423      3.1345251492996056
    56   1      7.4500404357334293       10.07042292987849      1.3433679754067629
    57   1      6.9532823890303979      7.5926055503433361      1.3433679094558222
    58   1       6.428668486844086       11.51939712203307      3.1345252134307815
    59   1      4.0070827453964171      12.247147751558671      3.1345252538628054
    60   1      5.4314427872087228      13.276494187640225      1.3433680687944078
    61   1      4.9605268823425694      10.669815838487253      1.3433679976268904
    62   1      4.4896362037394386      14.999999985202436      3.1345253427876321
    63   1      1.8283239934578641      15.000000001839766      3.1345253410279423
    64   1      3.0055268116719396      13.713345110857915      1.3433680968840771
    65   1      6.4571228775672918       5.099182965608648       1.343367844345968
    66   1      5.4597650579801735      6.5998617859390265       3.134525085177132
    67   1      2.9862835360535294      7.1330918241076091      3.1345251018430287
    68   1      4.4689367615281075       8.133581005696044      1.3433679253256265
    69   1      3.9739918067390674      5.6165548673451298      1.3433678587677578
    70   1      3.4905517838925375      9.6691123568152904      3.1345251762620276
    71   1     0.99377888577767559      10.070422939647074       3.134525177603745
    72   1       2.506944489001742      11.146156373211682      1.3433680149340597
    73   1      1.9962709831269074      8.6237257975935933      1.3433679386619666
    74   1      1.5059154613126662      12.519078567054834      3.1345252477038104
    75   1      0.4801676529783237      13.849168043870634       1.343368070869595
    76   1      12.884930055553266      11.519397145707302      1.3433680067240144
    77   1  0.00086132240184981458       5.099182956292168      3.1345250485178933
    78   1      1.4946816387041659      6.1121768597352144      1.3433678704954322
    79   1     0.49702083322758561      7.5926055478554275      3.1345251083633099
    80   1      12.404958851886953      9.0821287177488443      1.3433679473679523
    81   1      12.884930278046358      18.480602876719246      4.9256826394660198
    82   1      11.887704530450625       16.72350571039388       6.716839808861538
    83   1      7.9621772373695592      17.480921420474715      4.9256826236165026
    84   1      9.4617885296395503      16.286654827907739      6.7168397871782348
    85   1      6.9364293979243268      16.150831990281006      6.7168398120868131
    86   1      10.463344538689922       17.75285218759106      4.9256826158856279
    87   1      9.9468136220489747      20.330887595803205      4.9256826611084819
    88   1      11.416788689308035      19.330184117702089      6.7168398498682329
    89   1      8.9632063008005627      18.853843584668624      6.7168398436415053
    90   1      12.404959130772472      20.917871288141498      4.9256826722764586
    91   1      11.916026978147558      23.400138209931498      4.9256827088381145
    92   1      10.925198634524421      21.866418966864131      6.7168398874705124
    93   1  0.00086174191999487007      24.900817043707832       6.716839936144936
    94   1      3.0055269688226369      16.286654858867763      4.9256825812309497
    95   1      5.4314429738350141      16.723505730974921      4.9256826105465041
    96   1      4.9605271304124843      19.330184125125214      4.9256826491056618
    97   1      6.4286687314647253      18.480602846011635      6.7168398493868722
    98   1      4.0070829736431532      17.752852218674775      6.7168398210820071
    99   1       7.450040712317147      19.929577035643092      4.9256826622394581
   100   1      6.9532827235214434      22.407394416272496       4.925682697447197
   101   1      8.4525328453254893      21.376274158068497      6.7168398826368616
   102   1      5.9486975811884442      20.917871268351803      6.7168398784159509
   103   1      9.4425454462166538      22.866908137862936      4.9256827001898271
   104   1      10.430253766857806      24.383445114099345       6.716839927516153
   105   1      7.9509435858497621       23.88782310117486      6.7168399225132136
   106   1     0.48016785631786668      16.150832013108072      4.9256826041364956
   107   1      1.5059156794913948      17.480921455460248       6.716839824058721
   108   1      2.5069447375706617      18.853843624340016      4.9256826387358821
   109   1      1.9962712790213588      21.376274197462664      4.9256826769905331
   110   1      3.4905520623680175       20.33088762084725      6.7168398640469906
   111   1     0.99377914326579242      19.929577076561799      6.7168398613547184
   112   1      4.4689370820200134      21.866418965982575      4.9256826879557511
   113   1      3.9739922134241126      24.383445109937185      4.9256827262696365
   114   1      5.4597654305054348       23.40013818462424      6.7168399164141563
   115   1      2.9862838856206571       22.86690815988689      6.7168399047952789
   116   1      6.4571233066143163      24.900817009698102      4.9256827362840951
   117   1     0.49702115890937709      22.407394454924486      6.7168398960601898
   118   1      1.4946820231049649      23.887823133866476      4.9256827164616084
   119   1      11.887704350957904      13.276494185401504      6.7168396768079477
   120   1      10.945897761620502      14.999999970154306      4.9256825447781409
   121   1      10.925198325332339       8.133581011782681      6.7168395324841352
   122   1      11.916026620131992      6.5998617887385649      4.9256822858225187
   123   1      11.416788440165563      10.669815840621453       6.716839606090506
   124   1      8.9632060462852507      11.146156361185845      6.7168396239806878
   125   1      10.463344304090484      12.247147742192425      4.9256824589710746
   126   1      9.9468133452489997      9.6691123599231616      4.9256823773463543
   127   1      9.4617883647944545      13.713345088503843      6.7168397056878328
   128   1      6.9364292148560578      13.849168022361766      6.7168396823049044
   129   1      8.2845855457758901      14.999999963743562      4.9256825444508348
   130   1       7.962177016527483      12.519078545102616      4.9256824526576182
   131   1      10.430253366543056      5.6165548721306777      6.7168394670675076
   132   1      7.9509431963056514      6.1121768709483462      6.7168394794124051
   133   1      9.4425450969979572      7.1330918335721236      4.9256823036552122
   134   1      8.4525325390179837      8.6237257989724014       6.716839547308517
   135   1      5.9486972916573899      9.0821287132203423      6.7168395548732622
   136   1      7.4500404357334293       10.07042292987849      4.9256823809804207
   137   1      6.9532823890303979      7.5926055503433361        4.92568231502948
   138   1       6.428668486844086       11.51939712203307      6.7168396190044399
   139   1      4.0070827453964171      12.247147751558671      6.7168396594364612
   140   1      5.4314427872087228      13.276494187640225      4.9256824743680641
   141   1      4.9605268823425694      10.669815838487253      4.9256824032005477
   142   1      4.4896362037394386      14.999999985202436      6.7168397483612878
   143   1      1.8283239934578641      15.000000001839766      6.7168397466015994
   144   1      3.0055268116719396      13.713345110857915      4.9256825024577351
   145   1      6.4571228775672918       5.099182965608648      4.9256822499196256
   146   1      5.4597650579801735      6.5998617859390265      6.7168394907507887
   147   1      2.9862835360535294      7.1330918241076091      6.7168395074166849
   148   1      4.4689367615281075       8.133581005696044      4.9256823308992832
   149   1      3.9739918067390674      5.6165548673451298      4.9256822643414147
   150   1      3.4905517838925375      9.6691123568152904      6.7168395818356839
   151   1     0.99377888577767559      10.070422939647074      6.7168395831774017
   152   1       2.506944489001742      11.146156373211682      4.9256824205077177
   153   1      1.9962709831269074      8.6237257975935933      4.9256823442356232
   154   1      1.5059154613126662      12.519078567054834      6.7168396532774679
   155   1      0.4801676529783237      13.849168043870634      4.9256824764432521
   156   1      12.884930055553266      11.519397145707302      4.9256824122976708
   157   1  0.00086132240184981458       5.099182956292168      6.7168394540915495
   158   1      1.4946816387041659      6.1121768597352144      4.9256822760690886
   159   1     0.49702083322758561      7.5926055478554275      6.7168395139369679
   160   1      12.404958851886953      9.0821287177488443      4.9256823529416085
