(written by ASE)

240 atoms
1 atom types

0.0      19.130872742495107  xlo xhi
0.0                      30  ylo yhi
0.0      7.1063262862993364  zlo zhi

Atoms # atomic

     1   1       6.190518922716219      17.155052784575844      1.3324361817072459
     2   1      5.3650494166834548      14.999999999998295      3.1090177532820276
     3   1      6.9179462641128353      18.693451444785666      3.1090177532820782
     4   1      1.7005422755095327      15.000000000000057      1.3324361817071961
     5   1      3.9551800855741504      16.166492900014248      1.3324361817072461
     6   1      2.8920559198810425      18.370516406902283      1.3324361817072445
     7   1      4.5752726596446571      17.729018340128135      3.1090177532820853
     8   1       2.275959769369476      16.587581016610301       3.109017753282064
     9   1      5.2118878142052889        19.4120024388844      1.3324361817072377
    10   1      4.2349954254176989      21.723415645057116      1.3324361817072152
    11   1      5.9012994384021003      21.031039536020756       3.109017753282056
    12   1      3.5653892639832581      20.047036849538415      3.1090177532820635
    13   1      6.5671863983873617      22.680828191882199      1.3324361817071924
    14   1       5.572414090196709      25.039364354289091        1.33243618170714
    15   1       4.908667424015162      23.376190958522358      3.1090177532820151
    16   1      17.500427909000585       16.31247001926863      1.3324361817072103
    17   1      19.085600401014549      15.000000000000512      3.1090177532820307
    18   1      16.610566338647846      15.000000000000455      3.1090177532820222
    19   1      0.6303698886201663      17.211287598428811      1.3324361817072337
    20   1      18.788527734356624      19.616601211526586      1.3324361817072274
    21   1       1.278977082942147      18.957922183475091      3.1090177532820724
    22   1      18.148763253368635      17.898591742262965        3.10901775328206
    23   1      1.9269768689962079      20.693162576679669      1.3324361817072155
    24   1     0.94455890730854442      23.034263108977683      1.3324361817071761
    25   1      2.5876035746270758      22.382275881182721      3.1090177532820329
    26   1     0.29575761464662842      21.329240825222513      3.1090177532820396
    27   1      3.2522013014096158      24.056590151340231      1.3324361817071704
    28   1      1.6030347146666541      24.721026512727661      3.1090177532819916
    29   1      14.930485787931421      15.000000000000227      1.3324361817071879
    30   1      14.140709030892136      17.729018340128533      1.3324361817072212
    31   1      15.755955293963639      17.155052784576839      3.1090177532820538
    32   1      13.520616456822005      16.166492900015442      3.1090177532820489
    33   1      16.483382635360311       18.69345144478612      1.3324361817072152
    34   1      15.466735809649485      21.031039536021012      1.3324361817071906
    35   1      17.136974601700768      20.311409060127403      3.1090177532820396
    36   1       14.77732418545302      19.412002438884684      3.1090177532820396
    37   1      17.785028275057797      21.992703045187369      1.3324361817071886
    38   1      16.789205369645565      24.357562774134834      1.3324361817071477
    39   1      18.434483666164819      23.688155706275211      3.1090177532819956
    40   1      16.132622769634875      22.680828191882483      3.1090177532820018
    41   1      9.5201640297667254       14.99999999999838      1.3324361817071979
    42   1      11.265978646757246      15.000000000000171      3.1090177532820209
    43   1      11.841396140616487       16.58758101661067      1.3324361817072123
    44   1      10.844413454189203      18.957922183475091      1.3324361817072115
    45   1      12.457492291128348      18.370516406902823      3.1090177532820444
    46   1       10.19580625986741      17.211287598428413      3.1090177532820551
    47   1      13.130825635230288      20.047036849538387      1.3324361817071999
    48   1      12.153039945874363      22.382275881182551      1.3324361817071635
    49   1      13.800431796664942      21.723415645057514      3.1090177532820031
    50   1       11.49241324024362       20.69316257667964      3.1090177532820236
    51   1      14.474103795262478      23.376190958522272      1.3324361817071455
    52   1      15.137850461444435       25.03936435428912      3.1090177532819649
    53   1      12.817637672657114       24.05659015133989      3.1090177532819663
    54   1      7.0451299673995917      14.999999999999261      1.3324361817071964
    55   1      7.9349915377531257      16.312470019267835      3.1090177532820533
    56   1      8.5833268821208293      17.898591742262226       1.332436181707221
    57   1      7.5715382304531911      20.311409060126977      1.3324361817072252
    58   1      9.2230913631089937      19.616601211526302        3.10901775328204
    59   1      9.8611939858938769      21.329240825221888      1.3324361817071917
    60   1      8.8690472949172179      23.688155706274813      1.3324361817071562
    61   1      10.509995278556056      23.034263108977569      3.1090177532819911
    62   1      8.2195919038103131      21.992703045186829      3.1090177532820245
    63   1      11.168471085914076      24.721026512727377      1.3324361817071206
    64   1      7.2237689983978113      24.357562774134379       3.109017753281988
    65   1      18.148763253367516      12.101408257737233      3.1090177532819459
    66   1      18.788527734355391      10.383398788473528      1.3324361817070487
    67   1      17.500427909000244      13.687529980731654      1.3324361817071573
    68   1      18.434483666163853      6.3118442937245334       3.109017753281794
    69   1      16.132622769634391       7.319171808116721      3.1090177532818322
    70   1      17.785028275056842      8.0072969548125172      1.3324361817069985
    71   1      16.789205369644378      5.6424372258654358       1.332436181706959
    72   1      17.136974601700128      9.6885909398729666      3.1090177532818752
    73   1      14.777324185452287      10.587997561115571      3.1090177532819085
    74   1      16.483382635359661      11.306548555214761      1.3324361817070864
    75   1      15.466735809648723      8.9689604639793004      1.3324361817070387
    76   1       15.75595529396306      12.844947215424469       3.109017753281937
    77   1       13.52061645682104      13.833507099984928      3.1090177532819783
    78   1      14.140709030891848      12.270981659872035      1.3324361817071144
    79   1      15.137850461443568      4.9606356457108518      3.1090177532818024
    80   1      12.817637672656847      5.9434098486600107      3.1090177532818322
    81   1      14.474103795261911      6.6238090414781823      1.3324361817069938
    82   1      13.800431796664242      8.2765843549423437      3.1090177532818677
    83   1      11.492413240243197      9.3068374233201894      3.1090177532818837
    84   1      13.130825635229897      9.9529631504620397      1.3324361817070614
    85   1      12.153039945874072      7.6177241188180744      1.3324361817070147
    86   1      12.457492291127963      11.629483593097717      3.1090177532819339
    87   1      10.195806259866851      12.788712401571388      3.1090177532819578
    88   1      11.841396140616233      13.412418983389699      1.3324361817071473
    89   1      10.844413454189025      11.042077816525222        1.33243618170709
    90   1      11.168471085913259      5.2789734872727365      1.3324361817069923
    91   1      10.509995278555159      6.9657368910227149      3.1090177532818379
    92   1      8.2195919038096292      8.0072969548136541      3.1090177532818433
    93   1      9.8611939858935713      8.6707591747779702      1.3324361817070354
    94   1      8.8690472949162125      6.3118442937254429      1.3324361817069919
    95   1      9.2230913631085407      10.383398788474153      3.1090177532819063
    96   1      6.9179462641120217       11.30654855521351      3.1090177532819001
    97   1      8.5833268821199908       12.10140825773729      1.3324361817071111
    98   1      7.5715382304524956      9.6885909398727392      1.3324361817070423
    99   1      7.9349915377521558      13.687529980730716      3.1090177532819956
   100   1      6.1905189227148218      12.844947215423701      1.3324361817070838
   101   1      7.2237689983969675      5.6424372258661322      3.1090177532818046
   102   1      4.9086674240139896      6.6238090414778981      3.1090177532817904
   103   1      6.5671863983865348      7.3191718081178578      1.3324361817069816
   104   1      5.5724140901960508      4.9606356457109939      1.3324361817069601
   105   1       5.901299438400784      8.9689604639797551      3.1090177532818384
   106   1      3.5653892639817766      9.9529631504610165      3.1090177532818557
   107   1      5.2118878142040277      10.587997561115372      1.3324361817070387
   108   1      4.2349954254162405      8.2765843549423153      1.3324361817069796
   109   1      4.5752726596432272      12.270981659870898      3.1090177532819179
   110   1      2.2759597693681934      13.412418983388847      3.1090177532819703
   111   1      3.9551800855731702      13.833507099984161      1.3324361817071142
   112   1      2.8920559198800153      11.629483593097092       1.332436181707066
   113   1      1.6030347146658543      5.2789734872719691      3.1090177532817735
   114   1      3.2522013014088547      5.9434098486593285      1.3324361817069506
   115   1       2.587603574625994      7.6177241188170512      3.1090177532818055
   116   1     0.29575761464586076      8.6707591747770039      3.1090177532818308
   117   1      1.9269768689948175      9.3068374233197915      1.3324361817070065
   118   1     0.94455890730758296      6.9657368910218906       1.332436181706959
   119   1      1.2789770829407685      11.042077816524369      3.1090177532818841
   120   1     0.63036988861878607      12.788712401570962      1.3324361817070984
   121   1       6.190518922716219      17.155052784575844      4.8855993248569138
   122   1      5.3650494166834548      14.999999999998295      6.6621808964316953
   123   1      6.9179462641128353      18.693451444785666      6.6621808964317468
   124   1      1.7005422755095327      15.000000000000057      4.8855993248568641
   125   1      3.9551800855741504      16.166492900014248      4.8855993248569138
   126   1      2.8920559198810425      18.370516406902283      4.8855993248569121
   127   1      4.5752726596446571      17.729018340128135      6.6621808964317539
   128   1       2.275959769369476      16.587581016610301      6.6621808964317326
   129   1      5.2118878142052889        19.4120024388844      4.8855993248569058
   130   1      4.2349954254176989      21.723415645057116      4.8855993248568836
   131   1      5.9012994384021003      21.031039536020756      6.6621808964317237
   132   1      3.5653892639832581      20.047036849538415      6.6621808964317299
   133   1      6.5671863983873617      22.680828191882199      4.8855993248568597
   134   1       5.572414090196709      25.039364354289091      4.8855993248568081
   135   1       4.908667424015162      23.376190958522358      6.6621808964316838
   136   1      17.500427909000585       16.31247001926863      4.8855993248568774
   137   1      19.085600401014549      15.000000000000512      6.6621808964316971
   138   1      16.610566338647846      15.000000000000455      6.6621808964316891
   139   1      0.6303698886201663      17.211287598428811      4.8855993248569014
   140   1      18.788527734356624      19.616601211526586      4.8855993248568952
   141   1       1.278977082942147      18.957922183475091      6.6621808964317388
   142   1      18.148763253368635      17.898591742262965      6.6621808964317264
   143   1      1.9269768689962079      20.693162576679669      4.8855993248568845
   144   1     0.94455890730854442      23.034263108977683      4.8855993248568428
   145   1      2.5876035746270758      22.382275881182721      6.6621808964317015
   146   1     0.29575761464662842      21.329240825222513      6.6621808964317077
   147   1      3.2522013014096158      24.056590151340231      4.8855993248568375
   148   1      1.6030347146666541      24.721026512727661      6.6621808964316598
   149   1      14.930485787931421      15.000000000000227      4.8855993248568561
   150   1      14.140709030892136      17.729018340128533      4.8855993248568899
   151   1      15.755955293963639      17.155052784576839      6.6621808964317211
   152   1      13.520616456822005      16.166492900015442      6.6621808964317166
   153   1      16.483382635360311       18.69345144478612      4.8855993248568836
   154   1      15.466735809649485      21.031039536021012      4.8855993248568579
   155   1      17.136974601700768      20.311409060127403      6.6621808964317086
   156   1       14.77732418545302      19.412002438884684      6.6621808964317077
   157   1      17.785028275057797      21.992703045187369      4.8855993248568561
   158   1      16.789205369645565      24.357562774134834      4.8855993248568161
   159   1      18.434483666164819      23.688155706275211      6.6621808964316633
   160   1      16.132622769634875      22.680828191882483      6.6621808964316696
   161   1      9.5201640297667254       14.99999999999838      4.8855993248568659
   162   1      11.265978646757246      15.000000000000171      6.6621808964316882
   163   1      11.841396140616487       16.58758101661067       4.885599324856881
   164   1      10.844413454189203      18.957922183475091      4.8855993248568792
   165   1      12.457492291128348      18.370516406902823      6.6621808964317122
   166   1       10.19580625986741      17.211287598428413      6.6621808964317211
   167   1      13.130825635230288      20.047036849538387      4.8855993248568677
   168   1      12.153039945874363      22.382275881182551      4.8855993248568312
   169   1      13.800431796664942      21.723415645057514      6.6621808964316704
   170   1       11.49241324024362       20.69316257667964      6.6621808964316918
   171   1      14.474103795262478      23.376190958522272      4.8855993248568126
   172   1      15.137850461444435       25.03936435428912      6.6621808964316322
   173   1      12.817637672657114       24.05659015133989       6.662180896431634
   174   1      7.0451299673995917      14.999999999999261      4.8855993248568641
   175   1      7.9349915377531257      16.312470019267835      6.6621808964317202
   176   1      8.5833268821208293      17.898591742262226      4.8855993248568899
   177   1      7.5715382304531911      20.311409060126977      4.8855993248568934
   178   1      9.2230913631089937      19.616601211526302      6.6621808964317086
   179   1      9.8611939858938769      21.329240825221888      4.8855993248568597
   180   1      8.8690472949172179      23.688155706274813       4.885599324856825
   181   1      10.509995278556056      23.034263108977569      6.6621808964316598
   182   1      8.2195919038103131      21.992703045186829      6.6621808964316926
   183   1      11.168471085914076      24.721026512727377      4.8855993248567868
   184   1      7.2237689983978113      24.357562774134379      6.6621808964316553
   185   1      18.148763253367516      12.101408257737233      6.6621808964316127
   186   1      18.788527734355391      10.383398788473528      4.8855993248567167
   187   1      17.500427909000244      13.687529980731654       4.885599324856825
   188   1      18.434483666163853      6.3118442937245334      6.6621808964314626
   189   1      16.132622769634391       7.319171808116721      6.6621808964314999
   190   1      17.785028275056842      8.0072969548125172       4.885599324856666
   191   1      16.789205369644378      5.6424372258654358      4.8855993248566261
   192   1      17.136974601700128      9.6885909398729666      6.6621808964315425
   193   1      14.777324185452287      10.587997561115571      6.6621808964315781
   194   1      16.483382635359661      11.306548555214761       4.885599324856754
   195   1      15.466735809648723      8.9689604639793004       4.885599324856706
   196   1       15.75595529396306      12.844947215424469      6.6621808964316047
   197   1       13.52061645682104      13.833507099984928      6.6621808964316447
   198   1      14.140709030891848      12.270981659872035      4.8855993248567824
   199   1      15.137850461443568      4.9606356457108518      6.6621808964314706
   200   1      12.817637672656847      5.9434098486600107      6.6621808964314999
   201   1      14.474103795261911      6.6238090414781823      4.8855993248566616
   202   1      13.800431796664242      8.2765843549423437      6.6621808964315363
   203   1      11.492413240243197      9.3068374233201894      6.6621808964315505
   204   1      13.130825635229897      9.9529631504620397      4.8855993248567282
   205   1      12.153039945874072      7.6177241188180744       4.885599324856682
   206   1      12.457492291127963      11.629483593097717      6.6621808964316021
   207   1      10.195806259866851      12.788712401571388       6.662180896431626
   208   1      11.841396140616233      13.412418983389699      4.8855993248568153
   209   1      10.844413454189025      11.042077816525222      4.8855993248567584
   210   1      11.168471085913259      5.2789734872727365      4.8855993248566607
   211   1      10.509995278555159      6.9657368910227149      6.6621808964315061
   212   1      8.2195919038096292      8.0072969548136541      6.6621808964315115
   213   1      9.8611939858935713      8.6707591747779702      4.8855993248567033
   214   1      8.8690472949162125      6.3118442937254429      4.8855993248566607
   215   1      9.2230913631085407      10.383398788474153      6.6621808964315736
   216   1      6.9179462641120217       11.30654855521351      6.6621808964315683
   217   1      8.5833268821199908       12.10140825773729      4.8855993248567788
   218   1      7.5715382304524956      9.6885909398727392      4.8855993248567104
   219   1      7.9349915377521558      13.687529980730716      6.6621808964316633
   220   1      6.1905189227148218      12.844947215423701      4.8855993248567513
   221   1      7.2237689983969675      5.6424372258661322      6.6621808964314715
   222   1      4.9086674240139896      6.6238090414778981      6.6621808964314582
   223   1      6.5671863983865348      7.3191718081178578        4.88559932485665
   224   1      5.5724140901960508      4.9606356457109939       4.885599324856627
   225   1       5.901299438400784      8.9689604639797551      6.6621808964315061
   226   1      3.5653892639817766      9.9529631504610165       6.662180896431523
   227   1      5.2118878142040277      10.587997561115372       4.885599324856706
   228   1      4.2349954254162405      8.2765843549423153      4.8855993248566474
   229   1      4.5752726596432272      12.270981659870898       6.662180896431587
   230   1      2.2759597693681934      13.412418983388847      6.6621808964316367
   231   1      3.9551800855731702      13.833507099984161      4.8855993248567824
   232   1      2.8920559198800153      11.629483593097092      4.8855993248567344
   233   1      1.6030347146658543      5.2789734872719691      6.6621808964314404
   234   1      3.2522013014088547      5.9434098486593285      4.8855993248566181
   235   1       2.587603574625994      7.6177241188170512      6.6621808964314724
   236   1     0.29575761464586076      8.6707591747770039      6.6621808964314981
   237   1      1.9269768689948175      9.3068374233197915       4.885599324856674
   238   1     0.94455890730758296      6.9657368910218906      4.8855993248566261
   239   1      1.2789770829407685      11.042077816524369      6.6621808964315505
   240   1     0.63036988861878607      12.788712401570962      4.8855993248567664
