(written by ASE)

228 atoms
1 atom types

0.0      17.765815715748342  xlo xhi
0.0                      30  ylo yhi
0.0      7.1063262862993364  zlo zhi

Atoms # atomic

     1   1      1.6312227081080792      16.152969136948357      1.7765897747752006
     2   1     0.17375914688282468      13.250546708410084  8.9189490276550558e-06
     3   1      14.355148455597607      15.000000043335305      1.7765901735699856
     4   1      15.534686742361258      13.688251875370085   8.717651314968316e-06
     5   1      13.021364062721537      13.740758200448937  8.7155854771101716e-06
     6   1      16.991954729779806      15.000000028942111      1.7765901246505476
     7   1      16.591323287661822      17.805922232083162      1.7765897785763047
     8   1     0.17375769181714762       16.74945383797035   8.399551144374097e-06
     9   1      15.534685477333078      16.311748381817154  8.4196095464666139e-06
    10   1      1.2540378805567545      18.497375565867088      1.7765896008661579
    11   1     0.91344337428304345      20.942405579539013      1.7765893952682774
    12   1      17.613739375068786      19.377278156421937  8.0575174684764321e-06
    13   1      9.0566670743139284      13.250546740822244      1.7765905498687538
    14   1      11.802956946227756      15.000000253296633      1.7765902952616732
    15   1      11.595096249978262       17.46116643467434      1.7765898923539245
    16   1      13.021362649338062       16.25924180505487  8.3877577400130841e-06
    17   1       10.51413069656209      16.152968961705298  8.2839875271087709e-06
    18   1      14.118882904631166      17.570422945602132      1.7765898733960013
    19   1      13.746104161293285      20.126757017818676      1.7765895658629796
    20   1      15.175300374483443      18.951346801561442  8.1249712247648936e-06
    21   1      12.677121117448076      18.770689908512082  8.0897429729416027e-06
    22   1      16.221630678684352      20.424760116626402      1.7765894995334262
    23   1      15.860794986429974      22.998689326743147      1.7765892037352076
    24   1      17.269270993839239      21.938377076694962  7.7532516809073349e-06
    25   1      14.805645469140861      21.537071458832912  7.8140469117444391e-06
    26   1     0.56810416568795108      23.436137870831288       1.776589131800979
    27   1      1.6405306601391805      24.883250903561361  7.4104480497126973e-06
    28   1      16.918596682004711      24.480066759427274  7.4456622726642543e-06
    29   1      4.1384561142724268      13.740758274152981      1.7765902771081763
    30   1      6.6517789006674581      13.688251937075179       1.776590369922586
    31   1      6.6517776275750293      16.311748459635083      1.7765900674085866
    32   1      8.1090468879239186      15.000000092213853  8.6614735540336285e-06
    33   1      5.4722406198244116      15.000000135827605  8.6788473662226357e-06
    34   1       9.056665485472978       16.74945394268542      1.7765899983266062
    35   1      8.7308316155143508      19.377278158652018      1.7765896824632406
    36   1      10.136945633330789      18.497375819659027  8.0894530169629334e-06
    37   1      7.7084154590295784      17.805922293500885   8.299618520504694e-06
    38   1      11.228692587665138      19.904454310993486       1.776589575755487
    39   1      10.876256450790533      22.382093989723899      1.7765893021497661
    40   1      12.310301168246664      21.277450445120792  7.8283913439112447e-06
    41   1      9.7963513119814252      20.942405454079108  7.8794932276154768e-06
    42   1      13.380407020637445      22.670918081477879      1.7765892587006999
    43   1      13.019950282502267      25.208179209501822       1.776588960093233
    44   1      14.443265680051951      24.097127421832141  7.5097318034605044e-06
    45   1      11.951252012282959      23.791392988659567  7.5583822436816849e-06
    46   1      2.9200491043635273      14.999999948947249  8.7549010595677759e-06
    47   1      4.1384549093906644      16.259241874890364      1.7765899632603925
    48   1      3.7942131857933319      18.770689902436175      1.7765896623254716
    49   1      5.2359750280254378      17.570422969888341   8.375875874837775e-06
    50   1      2.7121883388142378      17.461166685919324  8.3497401732189985e-06
    51   1      6.2923925085890833      18.951346873245569       1.776589759952806
    52   1      5.9227376131964835      21.537071466039293      1.7765894549900765
    53   1      7.3387227951012859       20.42476016650258  8.0162569620013266e-06
    54   1      4.8631963008939199      20.126757073452978  8.0544588051705959e-06
    55   1       8.386363120857327      21.938377112566485      1.7765893950640714
    56   1      8.0356888581898893      24.480066720346287      1.7765890993527862
    57   1      9.4510120313448969      23.436137912197239  7.6236531716058454e-06
    58   1      6.9778871553494373      22.998689308885901  7.7187573715669828e-06
    59   1      10.523438536130218      24.883250906910035      1.7765890193055272
    60   1      2.3457847729488552      19.904454213382195  7.9992948297327585e-06
    61   1        3.42739331035536      21.277450465166311       1.776589408116779
    62   1      3.0683441211270366      23.791392980286247      1.7765891316281419
    63   1       4.497499141322991      22.670918071747394  7.7374196524515562e-06
    64   1       1.993348537507758      22.382094022106884  7.7110887193730952e-06
    65   1      5.5603578160192972      24.097127398057722      1.7765891485471628
    66   1      4.1370424137596382      25.208179178602165   7.422082546179275e-06
    67   1      1.6312243741412122      13.847030523460575      1.7765902491986136
    68   1      10.514132087652577      13.847030355912963  8.7966464275738705e-06
    69   1      17.613742153041397      10.622721985541077  9.0393923775081528e-06
    70   1      16.591325528476006      12.194077938311025      1.7765904117481313
    71   1      16.918601054935113      5.5199332687167413  9.1861414701189733e-06
    72   1      17.269274537387897      8.0616229165672877  9.1368640891162165e-06
    73   1      14.805648944267606      8.4629286330534512  9.1227146875650408e-06
    74   1      16.221633778223346         9.5752399515533      1.7765906154796562
    75   1       15.86079893212982      7.0013107385874918      1.7765907343379441
    76   1      15.175303018070935      11.048653306452991  8.9586276598765213e-06
    77   1      12.677123559353625      11.229310105108453  8.9891338559458551e-06
    78   1      14.118884941338848      12.429577185996337      1.7765904586100754
    79   1      13.746107206264281      9.8732429672474353      1.7765906617993232
    80   1      2.7121904158318282      12.538833273957636  9.0187798399505812e-06
    81   1      14.443269938183088      5.9028726459917777  9.2016747214169067e-06
    82   1      11.951256127077738      6.2086069930118128  9.2395774281975174e-06
    83   1      13.380410823753921      7.3290819643430041      1.7765907677101154
    84   1      13.019954867727096       4.791820833089389      1.7765908076564827
    85   1      12.310304573073221      8.7225494617644159   9.161537914027468e-06
    86   1      9.7963544484878931      9.0575942347246183  9.1870236529771687e-06
    87   1      11.228695539362784      10.095545682297143      1.7765907289569318
    88   1      10.876260101785542       7.617905817420322      1.7765908113165345
    89   1       10.13694816830442      11.502624099869465  9.0492211901903204e-06
    90   1      7.7084176362312533      12.194077947708251  8.9499053018960128e-06
    91   1      8.7308341984166251      10.622721942481917      1.7765906978483743
    92   1      10.523442988653056      5.1167490407805332       1.776590846371721
    93   1      9.4510160456150789      6.5638620298618946  9.2650655094244793e-06
    94   1      6.9778910405427137      7.0013107075473471  9.2439532465712212e-06
    95   1      8.3863666986240766      8.0616229264639685      1.7765908015109777
    96   1      8.0356931624858987      5.5199332349396855      1.7765908505277053
    97   1      7.3387259473329571      9.5752399609484371  9.1408029310553421e-06
    98   1      4.8631993531388131      9.8732430122101675  9.1128227392890659e-06
    99   1      6.2923951654776076      11.048653344807633       1.776590586782804
   100   1      5.9227410797004305      8.4629286190104267      1.7765907388036959
   101   1      5.2359771113685198      12.429577203665119  8.9449431488712877e-06
   102   1      11.595098218629742      12.538833012898593      1.7765906023878772
   103   1      3.7942157792026499      11.229310102382385       1.776590520217914
   104   1      4.1370469995370032      4.7918207904981784  9.2268623462651384e-06
   105   1      5.5603620713539339      5.9028726177100594      1.7765908111885329
   106   1      4.4975029722774433      7.3290819479647098  9.2025814713870831e-06
   107   1      1.9933522885566322      7.6179058561635742  9.1702390226871735e-06
   108   1      3.4273967093176743      8.7225494839421174      1.7765906880739277
   109   1      3.0683482826930124      6.2086069725627624      1.7765907654035467
   110   1      2.3457876408713552      10.095545598166552  9.1015787449872434e-06
   111   1       1.254040207021049      11.502623869862248      1.7765905169655642
   112   1      0.9134466639030101       9.057594381890695      1.7765906587839726
   113   1      1.6405351335241161      5.1167490173301644  9.1953825085168169e-06
   114   1     0.56810818849152334       6.563861992461355      1.7765907392880722
   115   1      1.6312227081080792      16.152969136948357      5.3297529179248677
   116   1     0.17375914688282468      13.250546708410084      3.5531720620986951
   117   1      14.355148455597607      15.000000043335305      5.3297533167196525
   118   1      15.534686742361258      13.688251875370085      3.5531718608009832
   119   1      13.021364062721537      13.740758200448937      3.5531718587351442
   120   1      16.991954729779806      15.000000028942111      5.3297532678002142
   121   1      16.591323287661822      17.805922232083162       5.329752921725972
   122   1     0.17375769181714762       16.74945383797035      3.5531715427008117
   123   1      15.534685477333078      16.311748381817154      3.5531715627592142
   124   1      1.2540378805567545      18.497375565867088      5.3297527440158268
   125   1     0.91344337428304345      20.942405579539013      5.3297525384179449
   126   1      17.613739375068786      19.377278156421937      3.5531712006671361
   127   1      9.0566670743139284      13.250546740822244      5.3297536930184215
   128   1      11.802956946227756      15.000000253296633      5.3297534384113412
   129   1      11.595096249978262       17.46116643467434      5.3297530355035914
   130   1      13.021362649338062       16.25924180505487      3.5531715309074077
   131   1       10.51413069656209      16.152968961705298      3.5531714271371952
   132   1      14.118882904631166      17.570422945602132      5.3297530165456681
   133   1      13.746104161293285      20.126757017818676      5.3297527090126469
   134   1      15.175300374483443      18.951346801561442      3.5531712681208925
   135   1      12.677121117448076      18.770689908512082      3.5531712328926406
   136   1      16.221630678684352      20.424760116626402      5.3297526426830935
   137   1      15.860794986429974      22.998689326743147      5.3297523468848738
   138   1      17.269270993839239      21.938377076694962      3.5531708964013484
   139   1      14.805645469140861      21.537071458832912       3.553170957196579
   140   1     0.56810416568795108      23.436137870831288      5.3297522749506472
   141   1      1.6405306601391805      24.883250903561361      3.5531705535977172
   142   1      16.918596682004711      24.480066759427274      3.5531705888119403
   143   1      4.1384561142724268      13.740758274152981      5.3297534202578447
   144   1      6.6517789006674581      13.688251937075179      5.3297535130722542
   145   1      6.6517776275750293      16.311748459635083      5.3297532105582555
   146   1      8.1090468879239186      15.000000092213853      3.5531718046232217
   147   1      5.4722406198244116      15.000000135827605      3.5531718219970339
   148   1       9.056665485472978       16.74945394268542      5.3297531414762727
   149   1      8.7308316155143508      19.377278158652018      5.3297528256129079
   150   1      10.136945633330789      18.497375819659027      3.5531712326026845
   151   1      7.7084154590295784      17.805922293500885      3.5531714427681882
   152   1      11.228692587665138      19.904454310993486       5.329752718905155
   153   1      10.876256450790533      22.382093989723899      5.3297524452994338
   154   1      12.310301168246664      21.277450445120792      3.5531709715410114
   155   1      9.7963513119814252      20.942405454079108      3.5531710226428954
   156   1      13.380407020637445      22.670918081477879      5.3297524018503664
   157   1      13.019950282502267      25.208179209501822      5.3297521032429014
   158   1      14.443265680051951      24.097127421832141      3.5531706528814713
   159   1      11.951252012282959      23.791392988659567      3.5531707015319114
   160   1      2.9200491043635273      14.999999948947249      3.5531718980507274
   161   1      4.1384549093906644      16.259241874890364      5.3297531064100596
   162   1      3.7942131857933319      18.770689902436175      5.3297528054751391
   163   1      5.2359750280254378      17.570422969888341      3.5531715190255424
   164   1      2.7121883388142378      17.461166685919324      3.5531714928898408
   165   1      6.2923925085890833      18.951346873245569      5.3297529031024737
   166   1      5.9227376131964835      21.537071466039293      5.3297525981397431
   167   1      7.3387227951012859       20.42476016650258        3.55317115940663
   168   1      4.8631963008939199      20.126757073452978      3.5531711976084726
   169   1       8.386363120857327      21.938377112566485      5.3297525382137376
   170   1      8.0356888581898893      24.480066720346287      5.3297522425024537
   171   1      9.4510120313448969      23.436137912197239      3.5531707668028396
   172   1      6.9778871553494373      22.998689308885901      3.5531708619070397
   173   1      10.523438536130218      24.883250906910035      5.3297521624551951
   174   1      2.3457847729488552      19.904454213382195      3.5531711424444974
   175   1        3.42739331035536      21.277450465166311      5.3297525512664476
   176   1      3.0683441211270366      23.791392980286247      5.3297522747778094
   177   1       4.497499141322991      22.670918071747394      3.5531708805693198
   178   1       1.993348537507758      22.382094022106884      3.5531708542383873
   179   1      5.5603578160192972      24.097127398057722      5.3297522916968303
   180   1      4.1370424137596382      25.208179178602165      3.5531705652322136
   181   1      1.6312243741412122      13.847030523460575       5.329753392348282
   182   1      10.514132087652577      13.847030355912963      3.5531719397960955
   183   1      17.613742153041397      10.622721985541077      3.5531721825420455
   184   1      16.591325528476006      12.194077938311025      5.3297535548977981
   185   1      16.918601054935113      5.5199332687167413      3.5531723292911379
   186   1      17.269274537387897      8.0616229165672877      3.5531722800137566
   187   1      14.805648944267606      8.4629286330534512      3.5531722658643554
   188   1      16.221633778223346         9.5752399515533      5.3297537586293231
   189   1       15.86079893212982      7.0013107385874918      5.3297538774876116
   190   1      15.175303018070935      11.048653306452991      3.5531721017773279
   191   1      12.677123559353625      11.229310105108453      3.5531721322835237
   192   1      14.118884941338848      12.429577185996337      5.3297536017597427
   193   1      13.746107206264281      9.8732429672474353      5.3297538049489903
   194   1      2.7121904158318282      12.538833273957636      3.5531721619295076
   195   1      14.443269938183088      5.9028726459917777       3.553172344824389
   196   1      11.951256127077738      6.2086069930118128      3.5531723827270962
   197   1      13.380410823753921      7.3290819643430041      5.3297539108597825
   198   1      13.019954867727096       4.791820833089389      5.3297539508061496
   199   1      12.310304573073221      8.7225494617644159      3.5531723046875818
   200   1      9.7963544484878931      9.0575942347246183      3.5531723301733202
   201   1      11.228695539362784      10.095545682297143      5.3297538721065996
   202   1      10.876260101785542       7.617905817420322      5.3297539544662031
   203   1       10.13694816830442      11.502624099869465      3.5531721923708579
   204   1      7.7084176362312533      12.194077947708251      3.5531720930549699
   205   1      8.7308341984166251      10.622721942481917      5.3297538409980412
   206   1      10.523442988653056      5.1167490407805332      5.3297539895213886
   207   1      9.4510160456150789      6.5638620298618946      3.5531724082151768
   208   1      6.9778910405427137      7.0013107075473471      3.5531723871029146
   209   1      8.3863666986240766      8.0616229264639685       5.329753944660645
   210   1      8.0356931624858987      5.5199332349396855      5.3297539936773735
   211   1      7.3387259473329571      9.5752399609484371      3.5531722839525988
   212   1      4.8631993531388131      9.8732430122101675      3.5531722559724073
   213   1      6.2923951654776076      11.048653344807633      5.3297537299324729
   214   1      5.9227410797004305      8.4629286190104267      5.3297538819533639
   215   1      5.2359771113685198      12.429577203665119      3.5531720880928166
   216   1      11.595098218629742      12.538833012898593      5.3297537455375439
   217   1      3.7942157792026499      11.229310102382385      5.3297536633675824
   218   1      4.1370469995370032      4.7918207904981784      3.5531723700120139
   219   1      5.5603620713539339      5.9028726177100594      5.3297539543382006
   220   1      4.4975029722774433      7.3290819479647098      3.5531723457311393
   221   1      1.9933522885566322      7.6179058561635742      3.5531723133886906
   222   1      3.4273967093176743      8.7225494839421174       5.329753831223595
   223   1      3.0683482826930124      6.2086069725627624      5.3297539085532151
   224   1      2.3457876408713552      10.095545598166552      3.5531722447284126
   225   1       1.254040207021049      11.502623869862248      5.3297536601152311
   226   1      0.9134466639030101       9.057594381890695      5.3297538019336406
   227   1      1.6405351335241161      5.1167490173301644      3.5531723385321761
   228   1     0.56810818849152334       6.563861992461355      5.3297538824377408
