(written by ASE)

276 atoms
1 atom types

0.0      21.610057195483719  xlo xhi
0.0                      30  ylo yhi
0.0      7.1063262862993364  zlo zhi

Atoms # atomic

     1   1      9.2500341818357583      16.757376940230415      1.7765815687705535
     2   1      9.8884030252845516      20.169339073231868      1.7765815687618378
     3   1      9.5652915506037157      18.436912388408047      3.5531631403369794
     4   1      10.524374954775874      23.697968298816619      1.7765815687532047
     5   1       10.21959956426412      21.922499549624973      3.5531631403323467
     6   1      5.7763598026822152      16.937540933279564      1.7765815687679283
     7   1      7.4737461539856271      16.835134007838178      3.5531631403411783
     8   1       7.772542413667809      18.680528963709861      1.7765815687659792
     9   1      6.4092344286212661      20.771616978445081      1.7765815687689859
    10   1      8.1313104579170812      20.475226160540274      3.5531631403384538
    11   1      6.1096951820415617      18.922442527288752      3.5531631403419102
    12   1      8.4593902843575925      22.248860598423306      1.7765815687622146
    13   1      7.0051415951855196      24.324060266746415      1.7765815687663831
    14   1      8.7668441325777557      24.014985324596296      3.5531631403324946
    15   1      6.7070529336118883      22.555326910808219       3.553163140342793
    16   1      2.4744886503048606      17.798244652367003      1.7765815687728337
    17   1      4.2087706837485275      17.311122543243386      3.5531631403422388
    18   1      2.1539181599760249       16.17401400946801      3.5531631403363342
    19   1      4.4559282397508344      19.203356176227885      1.7765815687713951
    20   1      2.9497609493788515      21.303209064583598      1.7765815687796334
    21   1      4.6904557010639749       21.03530699622516      3.5531631403484458
    22   1      2.7043542643060547      19.519076923563802      3.5531631403458515
    23   1      4.9580820917138348      22.835971530076193       1.776581568776344
    24   1      3.4978325791280489      24.902689384135471        1.77658156878388
    25   1      5.2471246998395076      24.618197062617867      3.5531631403501915
    26   1      3.2139402533769785      23.105686989974231      3.5531631403572033
    27   1     0.37317796450576296        16.5231982106217      1.7765815687981081
    28   1      20.370320148339637      18.436912388373514      1.7765815687752726
    29   1     0.59453883833465937      18.168496753711679      3.5531631403336008
    30   1      20.055062779537636      16.757376940309314      3.5531631403350761
    31   1     0.89696385365247333      19.850237502785632      1.7765815687790192
    32   1      21.024628161987664      21.922499549599252       1.776581568783304
    33   1      1.1837350260344228      21.600713881603156      3.5531631403558057
    34   1       20.69343162300661      20.169339073244942      3.5531631403493962
    35   1      1.4695787641264031      23.390428036630908      1.7765815687872828
    36   1       1.754843623329372      25.188733340884937      3.5531631403625159
    37   1      21.329403552504942      23.697968298809229      3.5531631403614941
    38   1      18.278774751707083      16.835134007866316      1.7765815687692297
    39   1       16.91472377980319      18.922442527286336      1.7765815687691906
    40   1      18.577571011386411      18.680528963693178      3.5531631403443833
    41   1      16.581388400429788       16.93754093328144      3.5531631403400685
    42   1      18.936339055623929      20.475226160549511       1.776581568775937
    43   1      17.512081531355605      22.555326910810123      1.7765815687732296
    44   1      19.264418882079212      22.248860598408697      3.5531631403538633
    45   1      17.214263026371725      20.771616978463214      3.5531631403460544
    46   1      19.571872730318169      24.014985324606357      1.7765815687819102
    47   1      17.810170192942884      24.324060266773415      3.5531631403473227
    48   1      12.958946757716477      16.174014009426543      1.7765815687634465
    49   1      15.013799281437583      17.311122543254811      1.7765815687652893
    50   1      13.509382862048691      19.519076923549989      1.7765815687626001
    51   1      15.260956837419679      19.203356176216573      3.5531631403399735
    52   1      13.279517248102911      17.798244652431606      3.5531631403348891
    53   1      15.495484298788185      21.035306996262364      1.7765815687667619
    54   1      14.018968851139306      23.105686989996542      1.7765815687575299
    55   1      15.763110689454196      22.835971530096344      3.5531631403394566
    56   1      13.754789547139833      21.303209064618983      3.5531631403355761
    57   1      16.052153297600686      24.618197062656492      1.7765815687606148
    58   1      14.302861176894551      24.902689384173499      3.5531631403256956
    59   1        11.1782065621844      16.523198210505683      3.5531631403328547
    60   1      11.399567436069937      18.168496753772985      1.7765815687689712
    61   1      11.701992451390623      19.850237502772245       3.553163140334227
    62   1      11.988763623790089      21.600713881641298       1.776581568758149
    63   1      12.274607361882309       23.39042803665339      3.5531631403276007
    64   1      12.559872221082895      25.188733340915633      1.7765815687452495
    65   1      18.170160802377993      15.000000000014523      3.5531631403404624
    66   1    0.054031194490944415      14.999999999939689       3.553163140300347
    67   1      10.859059792221213      15.000000000111868      1.7765815687924911
    68   1      19.941463935391074      14.999999999995794      1.7765815687808275
    69   1      5.5235353748455376      14.999999999998806      3.5531631403443873
    70   1      7.3651322046444045      15.000000000003354      1.7765815687744824
    71   1      9.1364353376507861      15.000000000030695      3.5531631403456054
    72   1      3.6989285855826282      15.000000000025324      1.7765815687661821
    73   1       14.50395718331138      15.000000000002956      3.5531631403463226
    74   1      21.329403552548392      6.3020317011687013      3.5531631403867028
    75   1      20.693431623032776      9.8306609267683172      3.5531631403626958
    76   1      21.024628162021276      8.0775004503854007      1.7765815688011428
    77   1      20.055062779587633      13.242623059788031      3.5531631403398993
    78   1      20.370320148357798      11.563087611624411      1.7765815687822868
    79   1      17.810170192983968      5.6759397332200336      3.5531631404048647
    80   1      19.571872730360028      5.9850146753786788      1.7765815688178208
    81   1      19.264418882117372       7.751139401581213      3.5531631403837229
    82   1      17.214263026408915      9.2283830215609015      3.5531631403832891
    83   1      18.936339055653903      9.5247738394680397      1.7765815687981457
    84   1      17.512081531396447      7.4446730891881998      1.7765815688204183
    85   1      18.577571011388699      11.319471036299191      3.5531631403615282
    86   1      16.581388400449843      13.062459066751103      3.5531631403555619
    87   1      18.278774751712973      13.164865992175834      1.7765815687773689
    88   1      16.914723779835324      11.077557472732053       1.776581568795558
    89   1      14.302861176933719      5.0973106158296275       3.553163140432035
    90   1      16.052153297639535       5.381802937343636      1.7765815688437416
    91   1      15.763110689494972      7.1640284699078762      3.5531631404074879
    92   1      13.754789547174333       8.696790935400017      3.5531631404012152
    93   1      15.495484298822559      8.9646930037580859      1.7765815688174755
    94   1      14.018968851179782      6.8943130100109471      1.7765815688437172
    95   1      15.260956837457046      10.796643823795975      3.5531631403764723
    96   1      13.279517248097445      12.201755347614693      3.5531631403700854
    97   1      15.013799281432467      12.688877456784411      1.7765815687877653
    98   1       13.50938286208056      10.480923076457088      1.7765815688090087
    99   1      12.958946757760247      13.825985990555495      1.7765815687936406
   100   1      1.1837350260598398      8.3992861183779866      3.5531631403732873
   101   1     0.59453883834224852      11.831503246279965      3.5531631403391528
   102   1       12.55987222112253      4.8112666590843531      1.7765815688666202
   103   1      12.274607361920969      6.6095719633518399      3.5531631404274004
   104   1      10.219599564293976      8.0775004503872339      3.5531631404145796
   105   1       11.98876362382223      8.3992861183745475        1.77658156883358
   106   1      10.524374954813812      6.3020317011833527      1.7765815688566606
   107   1      11.701992451420208      10.149762497225396      3.5531631403883526
   108   1      9.5652915506142264      11.563087611629712      3.5531631403753119
   109   1      11.399567436083668      11.831503246269904      1.7765815688019997
   110   1      9.8884030253039406      9.8306609267629028      1.7765815688204956
   111   1      11.178206562227938      13.476801789411411      3.5531631403502186
   112   1       9.250034181779931      13.242623059678067      1.7765815687900981
   113   1      8.7668441326193154      5.9850146753968545      3.5531631404312884
   114   1      6.7070529336453477      7.4446730891911557       3.553163140411538
   115   1       8.459390284386755      7.7511394015838846      1.7765815688406106
   116   1      7.0051415952348552      5.6759397332386499      1.7765815688494742
   117   1      8.1313104579340703      9.5247738394531893      3.5531631403970283
   118   1      6.1096951820446064      11.077557472713607       3.553163140377706
   119   1      7.7725424136993944      11.319471036328451      1.7765815688033968
   120   1      6.4092344286367231      9.2283830215442038      1.7765815688197339
   121   1      7.4737461539904571      13.164865992149828      3.5531631403592576
   122   1      5.7763598026800533      13.062459066719498      1.7765815687829816
   123   1      5.2471246998945311      5.3818029373605327      3.5531631404146462
   124   1      3.2139402534160979      6.8943130100065844      3.5531631403931825
   125   1      4.9580820917496755      7.1640284699131769      1.7765815688274642
   126   1      3.4978325791860456      5.0973106158372303      1.7765815688290354
   127   1      4.6904557010815546      8.9646930037637702       3.553163140387805
   128   1      2.7043542643107363      10.480923076437364      3.5531631403625599
   129   1      4.4559282397447557       10.79664382377311      1.7765815687983513
   130   1      2.9497609494008454      8.6967909354001875      1.7765815688041462
   131   1      4.2087706837496999      12.688877456745502       3.553163140356808
   132   1      2.1539181599661683      13.825985990566124      3.5531631403395809
   133   1      2.4744886503222761       12.20175534761961      1.7765815687793363
   134   1     0.89696385366175702      10.149762497223008      1.7765815687879665
   135   1     0.37317796448500379      13.476801789466123      1.7765815687984781
   136   1      1.7548436233853379      4.8112666590850637      3.5531631403967352
   137   1      1.4695787641670488      6.6095719633452177       1.776581568811878
   138   1      16.328563972588171      15.000000000016144      1.7765815687706328
   139   1      9.2500341818357583      16.757376940230415      5.3297447119202221
   140   1      9.8884030252845516      20.169339073231868      5.3297447119115047
   141   1      9.5652915506037157      18.436912388408047 -2.8126886615937669e-09
   142   1      10.524374954775874      23.697968298816619      5.3297447119028716
   143   1       10.21959956426412      21.922499549624973 -2.8173214242501289e-09
   144   1      5.7763598026822152      16.937540933279564      5.3297447119175949
   145   1      7.4737461539856271      16.835134007838178  -2.808489806402598e-09
   146   1       7.772542413667809      18.680528963709861       5.329744711915648
   147   1      6.4092344286212661      20.771616978445081      5.3297447119186527
   148   1      8.1313104579170812      20.475226160540274 -2.8112149018640815e-09
   149   1      6.1096951820415617      18.922442527288752 -2.8077575938283247e-09
   150   1      8.4593902843575925      22.248860598423306      5.3297447119118821
   151   1      7.0051415951855196      24.324060266746415      5.3297447119160504
   152   1      8.7668441325777557      24.014985324596296 -2.8171730746703105e-09
   153   1      6.7070529336118883      22.555326910808219 -2.8068740205190268e-09
   154   1      2.4744886503048606      17.798244652367003      5.3297447119225021
   155   1      4.2087706837485275      17.311122543243386 -2.8074293779108642e-09
   156   1      2.1539181599760249       16.17401400946801 -2.8133340525262653e-09
   157   1      4.4559282397508344      19.203356176227885      5.3297447119210624
   158   1      2.9497609493788515      21.303209064583598      5.3297447119293011
   159   1      4.6904557010639749       21.03530699622516 -2.8012218814535735e-09
   160   1      2.7043542643060547      19.519076923563802 -2.8038175976130368e-09
   161   1      4.9580820917138348      22.835971530076193      5.3297447119260113
   162   1      3.4978325791280489      24.902689384135471      5.3297447119335475
   163   1      5.2471246998395076      24.618197062617867 -2.7994767162679817e-09
   164   1      3.2139402533769785      23.105686989974231 -2.7924644383959521e-09
   165   1     0.37317796450576296        16.5231982106217      5.3297447119477761
   166   1      20.370320148339637      18.436912388373514      5.3297447119249401
   167   1     0.59453883833465937      18.168496753711679 -2.8160669769912848e-09
   168   1      20.055062779537636      16.757376940309314 -2.8145916113121564e-09
   169   1     0.89696385365247333      19.850237502785632      5.3297447119286865
   170   1      21.024628161987664      21.922499549599252      5.3297447119329719
   171   1      1.1837350260344228      21.600713881603156 -2.7938624173862848e-09
   172   1       20.69343162300661      20.169339073244942 -2.8002719623579018e-09
   173   1      1.4695787641264031      23.390428036630908       5.329744711936951
   174   1       1.754843623329372      25.188733340884937 -2.7871531620998243e-09
   175   1      21.329403552504942      23.697968298809229 -2.7881740440865184e-09
   176   1      18.278774751707083      16.835134007866316       5.329744711918897
   177   1       16.91472377980319      18.922442527286336       5.329744711918857
   178   1      18.577571011386411      18.680528963693178 -2.8052850339167895e-09
   179   1      16.581388400429788       16.93754093328144 -2.8095990156086698e-09
   180   1      18.936339055623929      20.475226160549511      5.3297447119256045
   181   1      17.512081531355605      22.555326910810123      5.3297447119228964
   182   1      19.264418882079212      22.248860598408697 -2.7958049136097136e-09
   183   1      17.214263026371725      20.771616978463214 -2.8036124375716638e-09
   184   1      19.571872730318169      24.014985324606357      5.3297447119315775
   185   1      17.810170192942884      24.324060266773415 -2.8023453434609542e-09
   186   1      12.958946757716477      16.174014009426543      5.3297447119131141
   187   1      15.013799281437583      17.311122543254811       5.329744711914957
   188   1      13.509382862048691      19.519076923549989      5.3297447119122676
   189   1      15.260956837419679      19.203356176216573 -2.8096952722034236e-09
   190   1      13.279517248102911      17.798244652431606 -2.8147778010757308e-09
   191   1      15.495484298788185      21.035306996262364      5.3297447119164287
   192   1      14.018968851139306      23.105686989996542      5.3297447119071979
   193   1      15.763110689454196      22.835971530096344 -2.8102112838339018e-09
   194   1      13.754789547139833      21.303209064618983 -2.8140913580605894e-09
   195   1      16.052153297600686      24.618197062656492      5.3297447119102817
   196   1      14.302861176894551      24.902689384173499  -2.823972363497432e-09
   197   1        11.1782065621844      16.523198210505683 -2.8168133419950268e-09
   198   1      11.399567436069937      18.168496753772985      5.3297447119186394
   199   1      11.701992451390623      19.850237502772245  -2.815442061914187e-09
   200   1      11.988763623790089      21.600713881641298       5.329744711907817
   201   1      12.274607361882309       23.39042803665339 -2.8220678078295996e-09
   202   1      12.559872221082895      25.188733340915633      5.3297447118949179
   203   1      18.170160802377993      15.000000000014523 -2.8092045542766764e-09
   204   1    0.054031194490944415      14.999999999939689 -2.8493200672783565e-09
   205   1      10.859059792221213      15.000000000111868      5.3297447119421584
   206   1      19.941463935391074      14.999999999995794      5.3297447119304957
   207   1      5.5235353748455376      14.999999999998806 -2.8052818220179029e-09
   208   1      7.3651322046444045      15.000000000003354      5.3297447119241497
   209   1      9.1364353376507861      15.000000000030695 -2.8040637093652118e-09
   210   1      3.6989285855826282      15.000000000025324      5.3297447119158496
   211   1       14.50395718331138      15.000000000002956 -2.8033457495922472e-09
   212   1      21.329403552548392      6.3020317011687013 -2.7629651545605934e-09
   213   1      20.693431623032776      9.8306609267683172 -2.7869716898127394e-09
   214   1      21.024628162021276      8.0775004503854007      5.3297447119508101
   215   1      20.055062779587633      13.242623059788031 -2.8097694469933326e-09
   216   1      20.370320148357798      11.563087611624411      5.3297447119319541
   217   1      17.810170192983968      5.6759397332200336 -2.7448032715634079e-09
   218   1      19.571872730360028      5.9850146753786788      5.3297447119674883
   219   1      19.264418882117372       7.751139401581213 -2.7659458970990713e-09
   220   1      17.214263026408915      9.2283830215609015 -2.7663798045642644e-09
   221   1      18.936339055653903      9.5247738394680397      5.3297447119478134
   222   1      17.512081531396447      7.4446730891881998      5.3297447119700871
   223   1      18.577571011388699      11.319471036299191  -2.788139315429809e-09
   224   1      16.581388400449843      13.062459066751103 -2.7941054176114141e-09
   225   1      18.278774751712973      13.164865992175834      5.3297447119270362
   226   1      16.914723779835324      11.077557472732053      5.3297447119452253
   227   1      14.302861176933719      5.0973106158296275 -2.7176331162799364e-09
   228   1      16.052153297639535       5.381802937343636      5.3297447119934089
   229   1      15.763110689494972      7.1640284699078762 -2.7421792505450081e-09
   230   1      13.754789547174333       8.696790935400017 -2.7484529924168317e-09
   231   1      15.495484298822559      8.9646930037580859      5.3297447119671446
   232   1      14.018968851179782      6.8943130100109471      5.3297447119933841
   233   1      15.260956837457046      10.796643823795975 -2.7731964577197408e-09
   234   1      13.279517248097445      12.201755347614693 -2.7795823149370707e-09
   235   1      15.013799281432467      12.688877456784411      5.3297447119374333
   236   1       13.50938286208056      10.480923076457088      5.3297447119586758
   237   1      12.958946757760247      13.825985990555495      5.3297447119433077
   238   1      1.1837350260598398      8.3992861183779866 -2.7763806539783079e-09
   239   1     0.59453883834224852      11.831503246279965 -2.8105143064194714e-09
   240   1       12.55987222112253      4.8112666590843531      5.3297447120162875
   241   1      12.274607361920969      6.6095719633518399 -2.7222673845139013e-09
   242   1      10.219599564293976      8.0775004503872339 -2.7350880804065792e-09
   243   1       11.98876362382223      8.3992861183745475      5.3297447119832482
   244   1      10.524374954813812      6.3020317011833527      5.3297447120063275
   245   1      11.701992451420208      10.149762497225396 -2.7613162459697554e-09
   246   1      9.5652915506142264      11.563087611629712 -2.7743561539614345e-09
   247   1      11.399567436083668      11.831503246269904      5.3297447119516681
   248   1      9.8884030253039406      9.8306609267629028      5.3297447119701626
   249   1      11.178206562227938      13.476801789411411 -2.7994483110372047e-09
   250   1       9.250034181779931      13.242623059678067      5.3297447119397656
   251   1      8.7668441326193154      5.9850146753968545  -2.718379380911838e-09
   252   1      6.7070529336453477      7.4446730891911557 -2.7381302505112605e-09
   253   1       8.459390284386755      7.7511394015838846      5.3297447119902781
   254   1      7.0051415952348552      5.6759397332386499      5.3297447119991421
   255   1      8.1313104579340703      9.5247738394531893 -2.7526408067055789e-09
   256   1      6.1096951820446064      11.077557472713607 -2.7719624863162977e-09
   257   1      7.7725424136993944      11.319471036328451      5.3297447119530643
   258   1      6.4092344286367231      9.2283830215442038      5.3297447119694015
   259   1      7.4737461539904571      13.164865992149828 -2.7904115331483008e-09
   260   1      5.7763598026800533      13.062459066719498      5.3297447119326495
   261   1      5.2471246998945311      5.3818029373605327 -2.7350217346202057e-09
   262   1      3.2139402534160979      6.8943130100065844 -2.7564862526473968e-09
   263   1      4.9580820917496755      7.1640284699131769      5.3297447119771322
   264   1      3.4978325791860456      5.0973106158372303      5.3297447119787025
   265   1      4.6904557010815546      8.9646930037637702 -2.7618637743580576e-09
   266   1      2.7043542643107363      10.480923076437364 -2.7871089984901356e-09
   267   1      4.4559282397447557       10.79664382377311      5.3297447119480195
   268   1      2.9497609494008454      8.6967909354001875      5.3297447119538148
   269   1      4.2087706837496999      12.688877456745502 -2.7928588997279455e-09
   270   1      2.1539181599661683      13.825985990566124 -2.8100866220083714e-09
   271   1      2.4744886503222761       12.20175534761961      5.3297447119290036
   272   1     0.89696385366175702      10.149762497223008       5.329744711937634
   273   1     0.37317796448500379      13.476801789466123      5.3297447119481456
   274   1      1.7548436233853379      4.8112666590850637 -2.7529327883887263e-09
   275   1      1.4695787641670488      6.6095719633452177      5.3297447119615455
   276   1      16.328563972588171      15.000000000016144      5.3297447119202994
