(written by ASE)

288 atoms
1 atom types

0.0      22.754296173786155  xlo xhi
0.0                      30  ylo yhi
0.0      7.1063262862993364  zlo zhi

Atoms # atomic

     1   1      14.174004209279088      19.896309002366962     0.43963735374748447
     2   1      13.040622541478239      18.505961981622022       2.216218830266464
     3   1      9.2208536522191231      18.989794234297108     0.43963714891230182
     4   1      10.598077446648203      17.831460757604106      2.2162186128390342
     5   1      8.1286666144526425      17.599326483799928      2.2162185499081537
     6   1      11.662235992071713      19.398710517848002     0.43963726068942471
     7   1      11.399433886175142      21.969631166545184     0.43963755148955186
     8   1      12.775775752343339      20.953666737084887      2.2162190606963934
     9   1      10.308235230166765       20.46583861398301      2.2162189392816587
    10   1      13.901112212791986      22.371318236419739     0.43963762176486193
    11   1      13.627664864897572      24.871635524734984     0.43963784636380127
    12   1      12.509637326373461      23.450534841736811      2.2162192915049737
    13   1      4.2108761903146608      18.746201639892575     0.43963726418213944
    14   1      5.6163332951533596      17.535699360512979      2.2162185583230491
    15   1      3.0838669208939558      17.454667777098337      2.2162186096355292
    16   1      6.7325529092120142      18.844904528268046     0.43963718118943645
    17   1      6.4410489953680141      21.401551161067658     0.43963749495793364
    18   1      7.8356902795826091      20.196819068353847      2.2162188829890175
    19   1      5.3292356823531231      20.061410049420175      2.2162189213574912
    20   1      8.9318262178786618       21.60277356349539     0.43963747920373164
    21   1      8.6482193561440077      24.186094655018678     0.43963776318117742
    22   1      10.027882424672086      23.055416307160357      2.2162192188859402
    23   1      7.5465760807725255      22.775556483060484      2.2162191977753545
    24   1      11.128985027624784      24.520960597770141     0.43963779799031177
    25   1      21.975225508315944      17.831460793366631     0.43963709609844742
    26   1      1.6634745317176525      18.505961812364575     0.43963731272047923
    27   1      1.3986276340711046      20.953666846243237     0.43963753928510452
    28   1      2.7968561638310572      19.896308928414584      2.2162189663038911
    29   1     0.28508783137383914       19.39871056917778      2.2162188814670283
    30   1      3.9249053055637124      21.240676172824266     0.43963754851394915
    31   1      3.6455153016904722      23.747221741627413     0.43963779454644053
    32   1      5.0434068298719588      22.588498809282328      2.2162192257522162
    33   1      2.5239641118715777      22.371318257198226      2.2162192387279687
    34   1      6.1553902045623117      23.952753658222036     0.43963777274079358
    35   1      4.7615530597841298      25.118664771612799      2.2162194629567158
    36   1      16.993481405157222      17.535699412339682     0.43963697656504536
    37   1      19.505814713123186      17.599326496254065     0.43963699840455128
    38   1      19.212838366342904       20.19681910207575     0.43963733713495107
    39   1      20.598001762729716      18.989794257693319      2.2162187593878384
    40   1       18.10970098153928      18.844904546508388        2.21621875298236
    41   1      21.685383337492652      20.465838626266134     0.43963741179307936
    42   1      21.405030502184324      23.055416337956757     0.43963769294649957
    43   1    0.022285835366452605      21.969631169015173      2.2162191748561089
    44   1      20.308974290563981      21.602773589990136      2.2162190805428232
    45   1      1.1324892645256666      23.450534814197766     0.43963777253090647
    46   1      2.2505167932972157      24.871635523888244      2.2162194721598709
    47   1      22.506133104312241      24.520960621173288        2.21621941541482
    48   1      14.461015055991041      17.454667641994661     0.43963700163529457
    49   1      15.588024329478754      18.746201663206591      2.2162188007202421
    50   1       16.70638378012411      20.061410057150624     0.43963733775384151
    51   1      16.420554903293255      22.588498836871139     0.43963762420850794
    52   1      17.818197093465379       21.40155118501346      2.2162190672697664
    53   1      15.302053367924829      21.240676184586363      2.2162190832053712
    54   1      18.923724169449773      22.775556499185427      0.4396376285275293
    55   1      20.025367446940745      24.186094675904741      2.2162193554966776
    56   1      17.532538278652044      23.952753678940496      2.2162193197901892
    57   1      15.022663385360289      23.747221746740877      2.2162193223011055
    58   1      16.138701140361928       25.11866478539406     0.43963785687017587
    59   1       22.33329677811367       14.99999996686833     0.43963663198760228
    60   1      20.886803983568111      16.321829443520954       2.216218395845889
    61   1      21.685382486652607      9.5341613422737339     0.43963575259053755
    62   1      21.975225061206402      12.168539168976338     0.43963616663320709
    63   1       19.50581432653571      12.400673432344831     0.43963620077009058
    64   1      20.886803794132433      13.678170470788615      2.2162179722052908
    65   1      20.598001124439033      11.010205705621416      2.2162175632073899
    66   1      19.699614981802508      14.999999982211733     0.43963661198411569
    67   1      17.149487827936941      14.999999936619361     0.43963657729089983
    68   1      18.369511247136824      16.279821123201913      2.2162183955826671
    69   1      18.369510994580967      13.720178830999657      2.2162179745398944
    70   1      15.851379184350233      16.252012503992518      2.2162184329381276
    71   1      21.405029158713337      6.9445836936697845     0.43963535896180606
    72   1       18.92372288872987      7.2244434742713963     0.43963539787146583
    73   1      20.308973255525611      8.3972263880742162      2.2162171588195805
    74   1      20.025365875573442      5.8139053404250092      2.2162167657158069
    75   1      19.212837552655316      9.8031808844228863     0.43963579835973426
    76   1      16.706383040405839      9.9385898509871708     0.43963575663517485
    77   1      18.109700461877534      11.155095384970309      2.2162175725410918
    78   1      17.818196046716789      8.5984488052686174      2.2162171707291511
    79   1      16.993480996796603      12.464300618719193     0.43963614786663335
    80   1       14.46101467220617      12.545331932302162     0.43963603323792178
    81   1      15.851379144269067      13.747987398039299      2.2162179836308882
    82   1      15.588023673168104      11.253798365481913      2.2162175296268622
    83   1      14.617115521669776       15.00000020744028     0.43963650159311995
    84   1      11.911717620774066      16.762214248625924      0.4396368905133094
    85   1      13.349512589511342      16.154162040375581      2.2162185700531158
    86   1      13.349512159982934      13.845837883026064      2.2162179103829351
    87   1      16.138699422028424      4.8813352146059685     0.43963500879937073
    88   1      17.532536786369175      6.0472463016317874      2.2162167750134225
    89   1      16.420553658059021      7.4115011872957837     0.43963537833235872
    90   1      13.901111025803402      7.6286816869859422     0.43963536674031339
    91   1      15.302052459591884      8.7593237521327012      2.2162171324014577
    92   1      15.022661906135481       6.252778281915738      2.2162167680171327
    93   1      14.174003526448155      10.103691205664177     0.43963569557318921
    94   1      11.662235302723516      10.601289405454509      0.4396358098261306
    95   1      13.040622147109753      11.494038187532652       2.216217488942918
    96   1      12.775774783418214      9.0463331948414236      2.2162171448464725
    97   1      11.911717437357826      13.237785657096879     0.43963615685854363
    98   1      9.5096556862718362      13.678170480587056     0.43963637593198845
    99   1      10.956148688729421      14.999999968821044      2.2162181596648312
   100   1      10.598076969444122      12.168539191651945      2.2162177131364347
   101   1       9.509655920316872      16.321829443998865     0.43963678945579932
   102   1      6.9923631127234698      16.279821109899956      0.4396368118553759
   103   1      8.3224668739979055      14.999999963037936      2.2162181580280094
   104   1      13.627663203074592      5.1283645385084355     0.43963502118261216
   105   1      11.128983422593166      5.4790394325628995     0.43963508204857749
   106   1      12.509635973055515      6.5494652170887946      2.2162167934132335
   107   1      11.399432813583116      8.0303688702184957     0.43963545164228374
   108   1      8.9318251693791648      8.3972264130847805     0.43963556071023102
   109   1      10.308234433547893      9.5341613868502009      2.2162172932289228
   110   1      10.027881086978351      6.9445837111514379      2.2162168962115185
   111   1      9.2208530654745005      11.010205726742242      0.4396359692216027
   112   1      6.7325523495700947      11.155095388308212     0.43963599616639232
   113   1      8.1286662257896349      12.400673449813155      2.2162177591547882
   114   1      7.8356894675778603      9.8031808910781706      2.2162173506963199
   115   1      6.9923629043489282      13.720178828263442     0.43963639860142534
   116   1      4.4742309636052031      13.747987390655709      0.4396364284061684
   117   1      5.7723397074348108       14.99999993933352      2.2162181443040767
   118   1       5.616332896516699       12.46430057907412      2.2162177237957801
   119   1      4.4742311492632147      16.252012497224541     0.43963688381521437
   120   1      1.9723643877064931      16.154162132593257     0.43963705325984553
   121   1      3.2399674124342419       14.99999999236843      2.2162180877776976
   122   1      8.6482178095558648      5.8139053782562371      0.4396351612876272
   123   1        6.15538870787696      6.0472463369493141     0.43963518816864949
   124   1      7.5465748213414123      7.2244435001302065      2.2162169486398002
   125   1      6.4410479789398973       8.598448823164091     0.43963558430107946
   126   1      3.9249043667357695      8.7593237439162692     0.43963557240661244
   127   1      5.3292349551564548      9.9385898652243441       2.216217321776516
   128   1      5.0434055734539882      7.4115011944443268      2.2162169501923663
   129   1      4.2108756173470336      11.253798346707981     0.43963597106502561
   130   1      1.6634739815360662      11.494037988076769     0.43963594311315757
   131   1      3.0838666166384496      12.545332043284333      2.2162176204133734
   132   1       2.796855401190081       10.10369112124269       2.216217282228699
   133   1      1.9723641487533461      13.845837963576798      0.4396363708255101
   134   1     0.53456957886170753      16.762214264505133      2.2162185067712445
   135   1     0.53456927947149668      13.237785595165661      2.2162177458673558
   136   1       4.761551346400636      4.8813352395471838      2.2162165678579315
   137   1      3.6455138227188075      6.2527782964042729     0.43963519853562744
   138   1      1.1324878567450918      6.5494651638549897      0.4396352502637334
   139   1      2.5239629457031514      7.6286816824248262      2.2162169561800109
   140   1      2.2505151000085171      5.1283645316171373       2.216216600835883
   141   1       1.398626718520785      9.0463332629493038     0.43963559362325133
   142   1     0.28508726407628687      10.601289388415836      2.2162174043126974
   143   1    0.022284687555216821      8.0303688213909652      2.2162170520741702
   144   1      22.506131502032531      5.4790394085694913      2.2162166834265329
   145   1      14.174004209279088      19.896309002366962      3.9928004968971527
   146   1      13.040622541478239      18.505961981622022      5.7693819734161309
   147   1      9.2208536522191231      18.989794234297108      3.9928002920619696
   148   1      10.598077446648203      17.831460757604106       5.769381755988702
   149   1      8.1286666144526425      17.599326483799928      5.7693816930578219
   150   1      11.662235992071713      19.398710517848002      3.9928004038390918
   151   1      11.399433886175142      21.969631166545184      3.9928006946392194
   152   1      12.775775752343339      20.953666737084887      5.7693822038460603
   153   1      10.308235230166765       20.46583861398301      5.7693820824313251
   154   1      13.901112212791986      22.371318236419739       3.992800764914529
   155   1      13.627664864897572      24.871635524734984       3.992800989513468
   156   1      12.509637326373461      23.450534841736811      5.7693824346546396
   157   1      4.2108761903146608      18.746201639892575      3.9928004073318064
   158   1      5.6163332951533596      17.535699360512979      5.7693817014727165
   159   1      3.0838669208939558      17.454667777098337      5.7693817527851969
   160   1      6.7325529092120142      18.844904528268046      3.9928003243391039
   161   1      6.4410489953680141      21.401551161067658      3.9928006381076022
   162   1      7.8356902795826091      20.196819068353847      5.7693820261386861
   163   1      5.3292356823531231      20.061410049420175      5.7693820645071581
   164   1      8.9318262178786618       21.60277356349539      3.9928006223533998
   165   1      8.6482193561440077      24.186094655018678      3.9928009063308445
   166   1      10.027882424672086      23.055416307160357      5.7693823620356079
   167   1      7.5465760807725255      22.775556483060484      5.7693823409250227
   168   1      11.128985027624784      24.520960597770141      3.9928009411399792
   169   1      21.975225508315944      17.831460793366631       3.992800239248115
   170   1      1.6634745317176525      18.505961812364575      3.9928004558701478
   171   1      1.3986276340711046      20.953666846243237      3.9928006824347717
   172   1      2.7968561638310572      19.896308928414584      5.7693821094535593
   173   1     0.28508783137383914       19.39871056917778      5.7693820246166947
   174   1      3.9249053055637124      21.240676172824266      3.9928006916636174
   175   1      3.6455153016904722      23.747221741627413      3.9928009376961087
   176   1      5.0434068298719588      22.588498809282328      5.7693823689018835
   177   1      2.5239641118715777      22.371318257198226      5.7693823818776355
   178   1      6.1553902045623117      23.952753658222036      3.9928009158904616
   179   1      4.7615530597841298      25.118664771612799      5.7693826061063831
   180   1      16.993481405157222      17.535699412339682      3.9928001197147136
   181   1      19.505814713123186      17.599326496254065      3.9928001415542189
   182   1      19.212838366342904       20.19681910207575      3.9928004802846191
   183   1      20.598001762729716      18.989794257693319      5.7693819025375062
   184   1       18.10970098153928      18.844904546508388      5.7693818961320282
   185   1      21.685383337492652      20.465838626266134      3.9928005549427463
   186   1      21.405030502184324      23.055416337956757      3.9928008360961673
   187   1    0.022285835366452605      21.969631169015173      5.7693823180057775
   188   1      20.308974290563981      21.602773589990136      5.7693822236924897
   189   1      1.1324892645256666      23.450534814197766      3.9928009156805739
   190   1      2.2505167932972157      24.871635523888244      5.7693826153095378
   191   1      22.506133104312241      24.520960621173288      5.7693825585644873
   192   1      14.461015055991041      17.454667641994661      3.9928001447849613
   193   1      15.588024329478754      18.746201663206591      5.7693819438699085
   194   1       16.70638378012411      20.061410057150624      3.9928004809035089
   195   1      16.420554903293255      22.588498836871139      3.9928007673581751
   196   1      17.818197093465379       21.40155118501346      5.7693822104194341
   197   1      15.302053367924829      21.240676184586363      5.7693822263550389
   198   1      18.923724169449773      22.775556499185427      3.9928007716771963
   199   1      20.025367446940745      24.186094675904741       5.769382498646344
   200   1      17.532538278652044      23.952753678940496      5.7693824629398573
   201   1      15.022663385360289      23.747221746740877      5.7693824654507733
   202   1      16.138701140361928       25.11866478539406      3.9928010000198433
   203   1       22.33329677811367       14.99999996686833      3.9927997751372701
   204   1      20.886803983568111      16.321829443520954      5.7693815389955567
   205   1      21.685382486652607      9.5341613422737339      3.9927988957402052
   206   1      21.975225061206402      12.168539168976338      3.9927993097828747
   207   1       19.50581432653571      12.400673432344831      3.9927993439197587
   208   1      20.886803794132433      13.678170470788615      5.7693811153549586
   209   1      20.598001124439033      11.010205705621416      5.7693807063570572
   210   1      19.699614981802508      14.999999982211733      3.9927997551337833
   211   1      17.149487827936941      14.999999936619361      3.9927997204405683
   212   1      18.369511247136824      16.279821123201913      5.7693815387323362
   213   1      18.369510994580967      13.720178830999657      5.7693811176895622
   214   1      15.851379184350233      16.252012503992518      5.7693815760877944
   215   1      21.405029158713337      6.9445836936697845      3.9927985021114734
   216   1       18.92372288872987      7.2244434742713963      3.9927985410211337
   217   1      20.308973255525611      8.3972263880742162      5.7693803019692478
   218   1      20.025365875573442      5.8139053404250092      5.7693799088654751
   219   1      19.212837552655316      9.8031808844228863      3.9927989415094025
   220   1      16.706383040405839      9.9385898509871708      3.9927988997848427
   221   1      18.109700461877534      11.155095384970309      5.7693807156907591
   222   1      17.818196046716789      8.5984488052686174       5.769380313878818
   223   1      16.993480996796603      12.464300618719193      3.9927992910163006
   224   1       14.46101467220617      12.545331932302162      3.9927991763875892
   225   1      15.851379144269067      13.747987398039299      5.7693811267805568
   226   1      15.588023673168104      11.253798365481913      5.7693806727765304
   227   1      14.617115521669776       15.00000020744028      3.9927996447427883
   228   1      11.911717620774066      16.762214248625924      3.9928000336629776
   229   1      13.349512589511342      16.154162040375581       5.769381713202784
   230   1      13.349512159982934      13.845837883026064      5.7693810535326024
   231   1      16.138699422028424      4.8813352146059685      3.9927981519490392
   232   1      17.532536786369175      6.0472463016317874      5.7693799181630894
   233   1      16.420553658059021      7.4115011872957837      3.9927985214820265
   234   1      13.901111025803402      7.6286816869859422      3.9927985098899805
   235   1      15.302052459591884      8.7593237521327012       5.769380275551125
   236   1      15.022661906135481       6.252778281915738      5.7693799111668014
   237   1      14.174003526448155      10.103691205664177       3.992798838722857
   238   1      11.662235302723516      10.601289405454509      3.9927989529757983
   239   1      13.040622147109753      11.494038187532652      5.7693806320925862
   240   1      12.775774783418214      9.0463331948414236      5.7693802879961416
   241   1      11.911717437357826      13.237785657096879      3.9927993000082114
   242   1      9.5096556862718362      13.678170480587056       3.992799519081657
   243   1      10.956148688729421      14.999999968821044       5.769381302814498
   244   1      10.598076969444122      12.168539191651945      5.7693808562861024
   245   1       9.509655920316872      16.321829443998865      3.9927999326054673
   246   1      6.9923631127234698      16.279821109899956      3.9927999550050437
   247   1      8.3224668739979055      14.999999963037936      5.7693813011776776
   248   1      13.627663203074592      5.1283645385084355      3.9927981643322785
   249   1      11.128983422593166      5.4790394325628995       3.992798225198245
   250   1      12.509635973055515      6.5494652170887946      5.7693799365629026
   251   1      11.399432813583116      8.0303688702184957      3.9927985947919522
   252   1      8.9318251693791648      8.3972264130847805      3.9927987038598984
   253   1      10.308234433547893      9.5341613868502009       5.769380436378591
   254   1      10.027881086978351      6.9445837111514379      5.7693800393611863
   255   1      9.2208530654745005      11.010205726742242      3.9927991123712698
   256   1      6.7325523495700947      11.155095388308212      3.9927991393160593
   257   1      8.1286662257896349      12.400673449813155      5.7693809023044569
   258   1      7.8356894675778603      9.8031808910781706      5.7693804938459881
   259   1      6.9923629043489282      13.720178828263442      3.9927995417510935
   260   1      4.4742309636052031      13.747987390655709      3.9927995715558353
   261   1      5.7723397074348108       14.99999993933352      5.7693812874537453
   262   1       5.616332896516699       12.46430057907412      5.7693808669454461
   263   1      4.4742311492632147      16.252012497224541      3.9928000269648818
   264   1      1.9723643877064931      16.154162132593257      3.9928001964095139
   265   1      3.2399674124342419       14.99999999236843      5.7693812309273644
   266   1      8.6482178095558648      5.8139053782562371       3.992798304437295
   267   1        6.15538870787696      6.0472463369493141      3.9927983313183164
   268   1      7.5465748213414123      7.2244435001302065      5.7693800917894675
   269   1      6.4410479789398973       8.598448823164091      3.9927987274507482
   270   1      3.9249043667357695      8.7593237439162692      3.9927987155562801
   271   1      5.3292349551564548      9.9385898652243441      5.7693804649261828
   272   1      5.0434055734539882      7.4115011944443268      5.7693800933420354
   273   1      4.2108756173470336      11.253798346707981      3.9927991142146921
   274   1      1.6634739815360662      11.494037988076769      3.9927990862628251
   275   1      3.0838666166384496      12.545332043284333      5.7693807635630403
   276   1       2.796855401190081       10.10369112124269      5.7693804253783663
   277   1      1.9723641487533461      13.845837963576798      3.9927995139751786
   278   1     0.53456957886170753      16.762214264505133      5.7693816499209118
   279   1     0.53456927947149668      13.237785595165661      5.7693808890170235
   280   1       4.761551346400636      4.8813352395471838      5.7693797110075984
   281   1      3.6455138227188075      6.2527782964042729      3.9927983416852943
   282   1      1.1324878567450918      6.5494651638549897       3.992798393413401
   283   1      2.5239629457031514      7.6286816824248262      5.7693800993296778
   284   1      2.2505151000085171      5.1283645316171373      5.7693797439855503
   285   1       1.398626718520785      9.0463332629493038      3.9927987367729192
   286   1     0.28508726407628687      10.601289388415836      5.7693805474623661
   287   1    0.022284687555216821      8.0303688213909652      5.7693801952238379
   288   1      22.506131502032531      5.4790394085694913      5.7693798265762011
