(written by ASE)

224 atoms
1 atom types

0.0       18.11711715645523  xlo xhi
0.0                      30  ylo yhi
0.0      7.1063262862993364  zlo zhi

Atoms # atomic

     1   1      14.605903596343065       16.52723548763845  3.8744531125578312e-08
     2   1       15.24862379607691      19.884441884358893  7.8821963352201568e-08
     3   1      14.877383764560371      18.188161697106523      1.7765816724477799
     4   1       15.60092586820973      21.645714496540421      1.7765816574240818
     5   1      12.528009547415646      14.999999973663421  6.9434853815310924e-08
     6   1      10.968283004491962      16.916076329424868  8.1385553998630422e-08
     7   1      12.683602928236965      16.786169376885937      1.7765816672192425
     8   1      10.697553897559933      14.999999988334196      1.7765816609962644
     9   1      13.083834692776584      18.503563478598807  7.7948577082081257e-08
    10   1      11.747019690353675      20.634875260222742   8.264150954511733e-08
    11   1      13.480102008596294       20.26737430163837      1.7765816573891124
    12   1      11.369996194074821      18.849042007980898      1.7765816563714545
    13   1      13.855226732721523       22.02194042212534     8.3896328982745e-08
    14   1      12.458598641695019      24.152639961011573  8.6951040348116004e-08
    15   1      14.205978110791518      23.788352021382224      1.7765816586771359
    16   1      12.104731855672645      22.394508228694662      1.7765816565020489
    17   1        8.87181733241591      14.999999980548637  8.7093278487328297e-08
    18   1      7.6826269688720199      17.788414061133409  8.7326622740686138e-08
    19   1      9.4012235196523033      17.287036734879564      1.7765816552727431
    20   1      7.3237491254980442      16.171706673800401      1.7765816477466276
    21   1      9.7054678348598653       19.16393852677669  8.2802876549635316e-08
    22   1      8.2828331761926197      21.294604388596611  8.4056018171582175e-08
    23   1      10.014675072024827      20.972972631058184      1.7765816550149049
    24   1      7.9680938976318272       19.51092060020099      1.7765816525159706
    25   1      10.357527317247776      22.746458893083542  8.4848547195788085e-08
    26   1      8.9673276626732754      24.864211177410937  8.8573473557548337e-08
    27   1      10.709929317584121       24.51222296929285      1.7765816591589882
    28   1      8.6187593880799866      23.085724534236789      1.7765816571180388
    29   1       3.469450967537909      15.000000000517417  9.9342176582602701e-08
    30   1      5.5473450219293561       16.52723548623635  1.2077750517382892e-07
    31   1       4.025276109608658      18.503563486000075  8.7220518363574727e-08
    32   1      5.8188251927419161      18.188161701528401      1.7765816416184785
    33   1      3.6250443539410542      16.786169377522498      1.7765816466654254
    34   1      6.1900652192522614      19.884441874803059  8.6755559263665688e-08
    35   1      4.7966681463326104      22.021940410185437  8.5416378498810354e-08
    36   1      6.5423672874543044      21.645714481039334      1.7765816547896629
    37   1       4.421543422099278      20.267374293467668      1.7765816530839793
    38   1      6.8862568601510237      23.429752517121557  8.6799552040482536e-08
    39   1      5.1474195269645966      23.788352005920018       1.776581659147364
    40   1       5.207639313577352      14.999999967551418      1.7765816059834236
    41   1      17.930375905791621      15.000000031053304  8.5504833290796986e-08
    42   1      1.6389953145094081      15.000000001620549      1.7765816554168674
    43   1      1.9097244156384641      16.916076341151353  8.4994844673333665e-08
    44   1     0.64690924142001316      19.163938535256619  8.2304473452199155e-08
    45   1      2.3114375971885979      18.849042018101869      1.7765816528976319
    46   1     0.34266492350445749      17.287036737958658      1.7765816545346598
    47   1      2.6884610970943954       20.63487525837192  8.3994819252430533e-08
    48   1      1.2989687339057518      22.746458902267875  8.6340083581348068e-08
    49   1      3.0461732681365863      22.394508226255113      1.7765816570633317
    50   1     0.95611648122292781      20.972972637290155      1.7765816555994676
    51   1      3.4000400613386996      24.152639956918165  8.8857294307484574e-08
    52   1      1.6513707430228528      24.512222978046111        1.77658166133787
    53   1      16.382307693971693      16.171706680667796      1.7765816637178258
    54   1      16.741185530487783      17.788414060199074  7.7094695870923719e-08
    55   1      17.026652464260064      19.510920608731084      1.7765816570112749
    56   1      17.341391747220769      21.294604402101925  8.3595818603963679e-08
    57   1      15.944815443957179      23.429752537738381  8.6704776833718386e-08
    58   1      17.677317966841944      23.085724552673753      1.7765816585915735
    59   1      18.025886247758873      24.864211195351572  9.0192834284580252e-08
    60   1      14.266197891269336       14.99999992046898       1.776581723622527
    61   1      17.341391805702333      8.7053956022558623  8.5242503255938246e-08
    62   1      17.677318024803906      6.9142754574070011      1.7765816541721309
    63   1      16.741185587268227      12.211585930746907  8.3244296545952018e-08
    64   1       17.02665251510146      10.489079400417154      1.7765816619569892
    65   1      16.382307704199512      13.828293352572885      1.7765816695028693
    66   1      15.944815498334245      6.5702474756909908  8.0633032989185327e-08
    67   1      13.855226781476738      7.9780595827928522  8.2650428486465838e-08
    68   1      15.600925921397534      8.3542855100596256      1.7765816574451578
    69   1      14.205978164282707      6.2116479895200598      1.7765816511173771
    70   1      15.248623845027005      10.115558128446594  8.2514171103723822e-08
    71   1      13.083834734339428      11.496436496543737  8.2379733060957306e-08
    72   1       14.87738381150073        11.8118382851234      1.7765816764388351
    73   1      13.480102053598101      9.7326257086441927      1.7765816602202851
    74   1      14.605903611285095      13.472764569225617  4.1462052728743785e-08
    75   1      12.683602992955027      13.213830663892068      1.7765816706927471
    76   1       12.45859869706805      5.8473600417779892  7.7863472702120571e-08
    77   1      10.357527364608021      7.2535410960392426  8.1685235506755366e-08
    78   1      12.104731901067675      7.6054917692845265      1.7765816542290225
    79   1      10.709929376753145      5.4877770223853872      1.7765816486979447
    80   1      11.747019725639399      9.3651247424164978  8.5012648831092371e-08
    81   1      9.7054678613876746      10.836061464261249  8.7852877217085243e-08
    82   1      11.369996203482467      11.150957958065177      1.7765816611838201
    83   1      10.014675110176647      9.0270273629981119      1.7765816570624156
    84   1      10.968283014750739      13.083923648729183  8.5887307013171715e-08
    85   1      9.4012235450580626      12.712963253856557      1.7765816608165981
    86   1      8.9673277242401035      5.1357888046484135  7.6880920111531647e-08
    87   1      6.8862569174719619        6.57024746418071  8.1772125100265887e-08
    88   1      8.6187594387284037      6.9142754475247727      1.7765816530632674
    89   1      8.2828332159598101      8.7053955968909804   8.577108384973402e-08
    90   1      6.1900652614873763      10.115558129090203  9.1035116124396693e-08
    91   1       7.968093925707155      10.489079398956378      1.7765816576063522
    92   1      6.5423673393302106        8.35428550546618      1.7765816558315473
    93   1      7.6826269969893213      12.211585936330877  9.3321804049603398e-08
    94   1      5.5473450314376986      13.472764571095155   1.235209456969179e-07
    95   1      7.3237491204181682      13.828293346424388      1.7765816537269905
    96   1      5.8188252247404311      11.811838296777111      1.7765816462632398
    97   1      3.4000401231943296      5.8473600373651635  8.1182091546190936e-08
    98   1      5.1474195878119344      6.2116479798259547      1.7765816529631229
    99   1      4.7966682064043047      7.9780595795801474  8.5564424152696734e-08
   100   1      2.6884611586502989      9.3651247454903626  8.7496322013146661e-08
   101   1      4.4215434779330831      9.7326257100469178      1.7765816569224944
   102   1      3.0461733315423163      7.6054917699733977      1.7765816559189456
   103   1      4.0252761550335592      11.496436512425362    9.24272893063769e-08
   104   1      1.9097244384533354      13.083923664222453  9.0085629932472057e-08
   105   1      3.6250444043940422      13.213830669621814      1.7765816506591894
   106   1      2.3114376379412209       11.15095797291886      1.7765816584939085
   107   1       18.02588630553338      5.1357888144610939  7.8232474616475232e-08
   108   1      1.6513708028528866      5.4877770252430196      1.7765816516513036
   109   1      1.2989687963764407      7.2535411015807938   8.370400499415641e-08
   110   1     0.95611654508900701      9.0270273673024946       1.776581658155336
   111   1     0.64690929405741204      10.836061471281241  8.7983747843907301e-08
   112   1      0.3426649772670437      12.712963253963025      1.7765816604512537
   113   1      14.605903596343065       16.52723548763845      3.5531631818941984
   114   1       15.24862379607691      19.884441884358893      3.5531632219716309
   115   1      14.877383764560371      18.188161697106523      5.3297448155974481
   116   1       15.60092586820973      21.645714496540421      5.3297448005737502
   117   1      12.528009547415646      14.999999973663421      3.5531632125845216
   118   1      10.968283004491962      16.916076329424868      3.5531632245352212
   119   1      12.683602928236965      16.786169376885937      5.3297448103689105
   120   1      10.697553897559933      14.999999988334196      5.3297448041459328
   121   1      13.083834692776584      18.503563478598807      3.5531632210982451
   122   1      11.747019690353675      20.634875260222742      3.5531632257911769
   123   1      13.480102008596294       20.26737430163837      5.3297448005387809
   124   1      11.369996194074821      18.849042007980898      5.3297447995211238
   125   1      13.855226732721523       22.02194042212534      3.5531632270459967
   126   1      12.458598641695019      24.152639961011573      3.5531632301007079
   127   1      14.205978110791518      23.788352021382224       5.329744801826803
   128   1      12.104731855672645      22.394508228694662      5.3297447996517153
   129   1        8.87181733241591      14.999999980548637      3.5531632302429466
   130   1      7.6826269688720199      17.788414061133409      3.5531632304762906
   131   1      9.4012235196523033      17.287036734879564      5.3297447984224107
   132   1      7.3237491254980442      16.171706673800401      5.3297447908962958
   133   1      9.7054678348598653       19.16393852677669      3.5531632259525439
   134   1      8.2828331761926197      21.294604388596611      3.5531632272056859
   135   1      10.014675072024827      20.972972631058184      5.3297447981645725
   136   1      7.9680938976318272       19.51092060020099      5.3297447956656372
   137   1      10.357527317247776      22.746458893083542      3.5531632279982155
   138   1      8.9673276626732754      24.864211177410937      3.5531632317231407
   139   1      10.709929317584121       24.51222296929285      5.3297448023086549
   140   1      8.6187593880799866      23.085724534236789      5.3297448002677079
   141   1       3.469450967537909      15.000000000517417       3.553163242491844
   142   1      5.5473450219293561       16.52723548623635      3.5531632639271731
   143   1       4.025276109608658      18.503563486000075      3.5531632303701861
   144   1      5.8188251927419161      18.188161701528401      5.3297447847681472
   145   1      3.6250443539410542      16.786169377522498      5.3297447898150923
   146   1      6.1900652192522614      19.884441874803059      3.5531632299052274
   147   1      4.7966681463326104      22.021940410185437      3.5531632285660457
   148   1      6.5423672874543044      21.645714481039334      5.3297447979393304
   149   1       4.421543422099278      20.267374293467668      5.3297447962336468
   150   1      6.8862568601510237      23.429752517121557      3.5531632299492197
   151   1      5.1474195269645966      23.788352005920018      5.3297448022970313
   152   1       5.207639313577352      14.999999967551418      5.3297447491330905
   153   1      17.930375905791621      15.000000031053304      3.5531632286545012
   154   1      1.6389953145094081      15.000000001620549      5.3297447985665363
   155   1      1.9097244156384641      16.916076341151353      3.5531632281445122
   156   1     0.64690924142001316      19.163938535256619      3.5531632254541412
   157   1      2.3114375971885979      18.849042018101869       5.329744796047299
   158   1     0.34266492350445749      17.287036737958658      5.3297447976843273
   159   1      2.6884610970943954       20.63487525837192      3.5531632271444873
   160   1      1.2989687339057518      22.746458902267875      3.5531632294897508
   161   1      3.0461732681365863      22.394508226255113      5.3297448002129997
   162   1     0.95611648122292781      20.972972637290155      5.3297447987491351
   163   1      3.4000400613386996      24.152639956918165      3.5531632320069617
   164   1      1.6513707430228528      24.512222978046111      5.3297448044875377
   165   1      16.382307693971693      16.171706680667796      5.3297448068674935
   166   1      16.741185530487783      17.788414060199074      3.5531632202443637
   167   1      17.026652464260064      19.510920608731084      5.3297448001609418
   168   1      17.341391747220769      21.294604402101925       3.553163226745486
   169   1      15.944815443957179      23.429752537738381      3.5531632298544444
   170   1      17.677317966841944      23.085724552673753      5.3297448017412412
   171   1      18.025886247758873      24.864211195351572      3.5531632333425018
   172   1      14.266197891269336       14.99999992046898      5.3297448667721934
   173   1      17.341391805702333      8.7053956022558623       3.553163228392171
   174   1      17.677318024803906      6.9142754574070011      5.3297447973217986
   175   1      16.741185587268227      12.211585930746907      3.5531632263939645
   176   1       17.02665251510146      10.489079400417154      5.3297448051066567
   177   1      16.382307704199512      13.828293352572885      5.3297448126525371
   178   1      15.944815498334245      6.5702474756909908         3.5531632237827
   179   1      13.855226781476738      7.9780595827928522      3.5531632258000965
   180   1      15.600925921397534      8.3542855100596256      5.3297448005948258
   181   1      14.205978164282707      6.2116479895200598      5.3297447942670457
   182   1      15.248623845027005      10.115558128446594      3.5531632256638392
   183   1      13.083834734339428      11.496436496543737      3.5531632255294014
   184   1       14.87738381150073        11.8118382851234      5.3297448195885027
   185   1      13.480102053598101      9.7326257086441927      5.3297448033699526
   186   1      14.605903611285095      13.472764569225617      3.5531631846117202
   187   1      12.683602992955027      13.213830663892068      5.3297448138424146
   188   1       12.45859869706805      5.8473600417779892      3.5531632210131407
   189   1      10.357527364608021      7.2535410960392426      3.5531632248349032
   190   1      12.104731901067675      7.6054917692845265      5.3297447973786909
   191   1      10.709929376753145      5.4877770223853872      5.3297447918476131
   192   1      11.747019725639399      9.3651247424164978      3.5531632281623171
   193   1      9.7054678613876746      10.836061464261249      3.5531632310025452
   194   1      11.369996203482467      11.150957958065177      5.3297448043334876
   195   1      10.014675110176647      9.0270273629981119       5.329744800212084
   196   1      10.968283014750739      13.083923648729183      3.5531632290369752
   197   1      9.4012235450580626      12.712963253856557      5.3297448039662649
   198   1      8.9673277242401035      5.1357888046484135      3.5531632200305876
   199   1      6.8862569174719619        6.57024746418071      3.5531632249217933
   200   1      8.6187594387284037      6.9142754475247727      5.3297447962129345
   201   1      8.2828332159598101      8.7053955968909804      3.5531632289207518
   202   1      6.1900652614873763      10.115558129090203      3.5531632341847836
   203   1       7.968093925707155      10.489079398956378      5.3297448007560195
   204   1      6.5423673393302106        8.35428550546618      5.3297447989812152
   205   1      7.6826269969893213      12.211585936330877      3.5531632364714714
   206   1      5.5473450314376986      13.472764571095155      3.5531632666706137
   207   1      7.3237491204181682      13.828293346424388      5.3297447968766587
   208   1      5.8188252247404311      11.811838296777111      5.3297447894129073
   209   1      3.4000401231943296      5.8473600373651635      3.5531632243317599
   210   1      5.1474195878119344      6.2116479798259547      5.3297447961127906
   211   1      4.7966682064043047      7.9780595795801474      3.5531632287140917
   212   1      2.6884611586502989      9.3651247454903626      3.5531632306459899
   213   1      4.4215434779330831      9.7326257100469178      5.3297448000721612
   214   1      3.0461733315423163      7.6054917699733977      5.3297447990686129
   215   1      4.0252761550335592      11.496436512425362      3.5531632355769567
   216   1      1.9097244384533354      13.083923664222453      3.5531632332352983
   217   1      3.6250444043940422      13.213830669621814      5.3297447938088558
   218   1      2.3114376379412209       11.15095797291886      5.3297448016435753
   219   1       18.02588630553338      5.1357888144610939      3.5531632213821425
   220   1      1.6513708028528866      5.4877770252430196      5.3297447948009715
   221   1      1.2989687963764407      7.2535411015807938      3.5531632268536733
   222   1     0.95611654508900701      9.0270273673024946      5.3297448013050044
   223   1     0.64690929405741204      10.836061471281241       3.553163231133416
   224   1      0.3426649772670437      12.712963253963025      5.3297448036009216
