(written by ASE)

144 atoms
1 atom types

0.0      11.231608918600223  xlo xhi
0.0                      30  ylo yhi
0.0      7.1063262862993364  zlo zhi

Atoms # atomic

     1   1      1.6898683599311932      18.868191585486343       2.230822065042128
     2   1      1.1177346983384728      17.140111107411073     0.45424010679824445
     3   1      2.2441194989185127      20.595531005472736     0.45423996168232722
     4   1      8.4212734510968428      16.564446845077057      2.2308230931240289
     5   1      10.697313595693222      17.730965389820298       2.230822616702572
     6   1      9.5520240493871889      20.015565271696403      2.2308223969869059
     7   1   0.0040837285617520667      19.437881945835457     0.45423966374779989
     8   1      8.9673973512035712      18.327902804423175     0.45423944301013908
     9   1     0.56351474755665465      21.157001309988061      2.2308220872357576
    10   1      10.671871729657225      23.444824102864089      2.2308218348400786
    11   1      1.1236896076659517      22.876091399851134     0.45424002608848663
    12   1      10.111336714235728      21.728426523704599     0.45423981549443837
    13   1      1.6864433124080576      24.589255353272733      2.2308216502359479
    14   1   0.0013311450765357089      25.160877760224025     0.45424013970522803
    15   1      5.0815090675625401      17.730965506982898      2.2308221357003135
    16   1      6.7335393884212733      17.140111001958374     0.45423976693727641
    17   1      7.3056728322929221       18.86819141826858      2.2308224150766192
    18   1       6.179319268397057      21.157001586014616      2.2308220711111284
    19   1      7.8599240924795106      20.595531251307278     0.45423971697527604
    20   1      5.6198880426406852       19.43788181802293     0.45423982682421543
    21   1      8.4259628115020107      22.303297354810496      2.2308220179232019
    22   1      7.3022478174821197      24.589255651991408       2.230821691073186
    23   1      8.9874156691368086      24.016481606566316     0.45424004863079193
    24   1      6.7394939209595126      22.876091105526058     0.45424000024455391
    25   1      2.8054690924563199      16.564446856344517      2.2308215129617488
    26   1       3.351593008408297       18.32790294122718     0.45424013330615526
    27   1      3.9362195705684879      20.015565021230145      2.2308220035659905
    28   1      2.8101584089395923      22.303297676878088      2.2308218481671216
    29   1      4.4955324087728847      21.728426782002686     0.45424000740724008
    30   1      5.0560672001095215      23.444823785312991       2.230821752329379
    31   1      5.6171357478591641      25.160878000619675     0.45424017102131314
    32   1      3.3716110502457122      24.016481328529579     0.45424014780506711
    33   1      10.127935092946091      13.839953686311404     0.45424014439043248
    34   1      10.697325063438326      12.269034580943384      2.2308221277346836
    35   1      10.127923744116503      16.160049945306056     0.45423967394208981
    36   1      8.9874368866826195      5.9835194843453507     0.45424008016617279
    37   1      10.671891925109099      6.5551771699672656      2.2308222256796104
    38   1      10.111356590704734      8.2715744223063723     0.45424017635115782
    39   1      7.8599411591350403      9.4044687085062861     0.45424023492353827
    40   1       9.552038302635987      9.9844326300135293      2.2308221834930326
    41   1      8.4259820714371383       7.696702219841697       2.230822221863531
    42   1      8.9674110883827431      11.672097310407636     0.45424010893710903
    43   1      6.7335527113998586       12.85989473434573     0.45424027473811995
    44   1      8.4212890713585367      13.435561519405638      2.2308227895247956
    45   1      7.3056867989110987      11.131812431967077      2.2308221132855213
    46   1      7.8627029040553333      15.000004941789484     0.45423927762273153
    47   1         6.0584311535649      15.000005823028843      2.2308220623793265
    48   1      5.6171599356928352      4.8391219993803247     0.45424012699887112
    49   1      7.3022693935926259      5.4107448646061158      2.2308222023030648
    50   1      6.7395129902122068      7.1239104009501659      0.4542401691092362
    51   1      4.4955524447114472      8.2715744419632102     0.45424036426152808
    52   1       6.179337641171025      8.8430010357233044      2.2308220504274794
    53   1      5.0560877916148579       6.555177411135773      2.2308221373404704
    54   1      5.6199037040190891      10.562120106570774     0.45424053449370572
    55   1       3.351606754527058      11.672097375433708     0.45424080483408114
    56   1      5.0815205843725932      12.269034578632912      2.2308216569418993
    57   1      3.9362340202666934      9.9844327222834721      2.2308217918710516
    58   1      4.5121305779609884      13.839953593684371     0.45424072282730316
    59   1      2.2468984563384353      15.000004586805673     0.45424095510069923
    60   1      4.5121192130274723      16.160049951266998     0.45424024044436195
    61   1       2.805484563185511      13.435561615778823      2.2308212128487828
    62   1      3.3716320283622649       5.983519523391962     0.45424017428608648
    63   1      1.1237089022864237      7.1239104118327532     0.45424020100037688
    64   1      2.8101773435949959      7.6967020503585815      2.2308220525531697
    65   1      1.6864652562633142      5.4107451408858651      2.2308221635286669
    66   1      2.2441364488719575      9.4044686609344836     0.45424048269471023
    67   1   0.0040993833915050947      10.562120064171097     0.45424036740512702
    68   1      1.6898822122651862      11.131812312279337      2.2308217663389378
    69   1     0.56353342253190475       8.843001183858533      2.2308220710348832
    70   1      1.1177483301685605      12.859894856021072     0.45424061235924557
    71   1      0.4426266774685203      15.000005822744455      2.2308218832172271
    72   1   0.0013550483680888881      4.8391220552825871      0.4542401008433225
    73   1      1.6898683599311932      18.868191585486343      5.7839852081917966
    74   1      1.1177346983384728      17.140111107411073      4.0074032499479122
    75   1      2.2441194989185127      20.595531005472736      4.0074031048319956
    76   1      8.4212734510968428      16.564446845077057      5.7839862362736971
    77   1      10.697313595693222      17.730965389820298      5.7839857598522393
    78   1      9.5520240493871889      20.015565271696403      5.7839855401365732
    79   1   0.0040837285617520667      19.437881945835457       4.007402806897467
    80   1      8.9673973512035712      18.327902804423175      4.0074025861598068
    81   1     0.56351474755665465      21.157001309988061      5.7839852303854249
    82   1      10.671871729657225      23.444824102864089      5.7839849779897454
    83   1      1.1236896076659517      22.876091399851134      4.0074031692381551
    84   1      10.111336714235728      21.728426523704599      4.0074029586441071
    85   1      1.6864433124080576      24.589255353272733      5.7839847933856161
    86   1   0.0013311450765357089      25.160877760224025      4.0074032828548951
    87   1      5.0815090675625401      17.730965506982898      5.7839852788499817
    88   1      6.7335393884212733      17.140111001958374      4.0074029100869435
    89   1      7.3056728322929221       18.86819141826858       5.783985558226286
    90   1       6.179319268397057      21.157001586014616      5.7839852142607961
    91   1      7.8599240924795106      20.595531251307278      4.0074028601249436
    92   1      5.6198880426406852       19.43788181802293      4.0074029699738825
    93   1      8.4259628115020107      22.303297354810496      5.7839851610728692
    94   1      7.3022478174821197      24.589255651991408      5.7839848342228537
    95   1      8.9874156691368086      24.016481606566316      4.0074031917804591
    96   1      6.7394939209595126      22.876091105526058      4.0074031433942219
    97   1      2.8054690924563199      16.564446856344517       5.783984656111417
    98   1       3.351593008408297       18.32790294122718      4.0074032764558236
    99   1      3.9362195705684879      20.015565021230145      5.7839851467156587
   100   1      2.8101584089395923      22.303297676878088      5.7839849913167889
   101   1      4.4955324087728847      21.728426782002686      4.0074031505569074
   102   1      5.0560672001095215      23.444823785312991      5.7839848954790467
   103   1      5.6171357478591641      25.160878000619675      4.0074033141709817
   104   1      3.3716110502457122      24.016481328529579       4.007403290954735
   105   1      10.127935092946091      13.839953686311404      4.0074032875401002
   106   1      10.697325063438326      12.269034580943384      5.7839852708843518
   107   1      10.127923744116503      16.160049945306056      4.0074028170917568
   108   1      8.9874368866826195      5.9835194843453507      4.0074032233158414
   109   1      10.671891925109099      6.5551771699672656      5.7839853688292795
   110   1      10.111356590704734      8.2715744223063723      4.0074033195008267
   111   1      7.8599411591350403      9.4044687085062861      4.0074033780732057
   112   1       9.552038302635987      9.9844326300135293      5.7839853266427008
   113   1      8.4259820714371383       7.696702219841697      5.7839853650131996
   114   1      8.9674110883827431      11.672097310407636      4.0074032520867764
   115   1      6.7335527113998586       12.85989473434573      4.0074034178877875
   116   1      8.4212890713585367      13.435561519405638      5.7839859326744634
   117   1      7.3056867989110987      11.131812431967077       5.783985256435189
   118   1      7.8627029040553333      15.000004941789484      4.0074024207723991
   119   1         6.0584311535649      15.000005823028843      5.7839852055289951
   120   1      5.6171599356928352      4.8391219993803247      4.0074032701485391
   121   1      7.3022693935926259      5.4107448646061158      5.7839853454527317
   122   1      6.7395129902122068      7.1239104009501659       4.007403312258905
   123   1      4.4955524447114472      8.2715744419632102      4.0074035074111967
   124   1       6.179337641171025      8.8430010357233044      5.7839851935771467
   125   1      5.0560877916148579       6.555177411135773      5.7839852804901382
   126   1      5.6199037040190891      10.562120106570774      4.0074036776433726
   127   1       3.351606754527058      11.672097375433708      4.0074039479837493
   128   1      5.0815205843725932      12.269034578632912      5.7839848000915666
   129   1      3.9362340202666934      9.9844327222834721       5.783984935020718
   130   1      4.5121305779609884      13.839953593684371      4.0074038659769711
   131   1      2.2468984563384353      15.000004586805673      4.0074040982503663
   132   1      4.5121192130274723      16.160049951266998      4.0074033835940286
   133   1       2.805484563185511      13.435561615778823      5.7839843559984505
   134   1      3.3716320283622649       5.983519523391962      4.0074033174357542
   135   1      1.1237089022864237      7.1239104118327532      4.0074033441500445
   136   1      2.8101773435949959      7.6967020503585815      5.7839851957028383
   137   1      1.6864652562633142      5.4107451408858651      5.7839853066783338
   138   1      2.2441364488719575      9.4044686609344836      4.0074036258443773
   139   1   0.0040993833915050947      10.562120064171097      4.0074035105547949
   140   1      1.6898822122651862      11.131812312279337      5.7839849094886056
   141   1     0.56353342253190475       8.843001183858533      5.7839852141845505
   142   1      1.1177483301685605      12.859894856021072      4.0074037555089133
   143   1      0.4426266774685203      15.000005822744455      5.7839850263668966
   144   1   0.0013550483680888881      4.8391220552825871      4.0074032439929903
