(written by ASE)

180 atoms
1 atom types

0.0      14.654288669487332  xlo xhi
0.0                      30  ylo yhi
0.0      7.1063262862993364  zlo zhi

Atoms # atomic

     1   1      6.2213712399329548      18.238125154717579 -1.0476997021195703e-06
     2   1      5.8417467581075861      16.542329598761654      1.7765804408610646
     3   1       7.118052622725326      21.699087424633944 -9.7948691179332424e-07
     4   1      6.6865569972232812       19.94653351873734      1.7765805718922754
     5   1      3.9968773798948996      16.878645555074939 -1.0663005723004094e-06
     6   1      2.8083053798331465      19.086279015790439 -9.8967434081517002e-07
     7   1      4.4998917635434612      18.652722400323682      1.7765805578365088
     8   1      2.4015049038401801      17.233136365829893      1.7765805359034141
     9   1      4.9521500156664198      20.410551358888796  -9.825151129482611e-07
    10   1      3.6617746782828666      22.593777399523162 -9.8682862108579954e-07
    11   1      5.3924493504955535      22.148531493495284      1.7765805854431862
    12   1      3.2290491706008271      20.845089657893368      1.7765805932115859
    13   1      5.8224229423146721       23.89836986390938 -1.0047565302974453e-06
    14   1      4.0963762317021262      24.340808806264988      1.7765805492423694
    15   1      13.168891004632025      16.542329331788693  -1.131591445915911e-06
    16   1     0.71262791335742393      17.771515804389793 -1.0279133841973432e-06
    17   1      14.013701277223099      19.946533518296178 -9.9264500311010826e-07
    18   1      1.0933991848418052      19.494915698295955      1.7765805793678437
    19   1      13.548515576630411      18.238125266926346      1.7765805244152739
    20   1      1.5083561755502297       21.26689976763285 -9.7713046403397143e-07
    21   1     0.21754417795396208      23.460886314245471  -1.003451389638476e-06
    22   1      1.9376037552992136      23.028312541788409      1.7765805733423832
    23   1      14.445196932561352      21.699087474369207      1.7765805887151991
    24   1      2.3703736809872011      24.781588300092579 -1.0370882402141705e-06
    25   1      9.7286490097232186      17.233136293258951 -1.0558688111191152e-06
    26   1      11.324022064060328      16.878645218977738      1.7765804872857553
    27   1      11.827036122298333      18.652722538421159 -1.0193463616767326e-06
    28   1      10.556193492235741      20.845089675114053 -9.7474049378631254e-07
    29   1      12.279294318638273      20.410551374520082      1.7765805874111864
    30   1      10.135449689181092      19.086279166836306      1.7765805694784613
    31   1       12.71959364874729      22.148531598387081 -9.8040793975814009e-07
    32   1      11.423520509110546      24.340808912162515 -1.0072285098590007e-06
    33   1      13.149567232346417      23.898369918233129      1.7765805629168929
    34   1       10.98891898126003      22.593777514112389       1.776580590102643
    35   1      8.0397722410048225      17.771515693501186      1.7765805269096691
    36   1      8.4205435929146724       19.49491570224464 -9.9995750198890446e-07
    37   1      8.8355005392976214      21.266899751555826      1.7765805938680019
    38   1      9.2647480747747029      23.028312623600499 -9.8428397150896349e-07
    39   1      9.6975179707246966      24.781588411018788      1.7765805546816826
    40   1      7.5446885281156275       23.46088633246984      1.7765805764775304
    41   1     0.27886143744435055      16.167626750400416      1.7765805143022952
    42   1      7.6060059024244238       16.16762690800752 -1.0705699428245656e-06
    43   1      14.013702707397185      10.053466540768255 -1.3578724444511621e-06
    44   1      13.168891881562271      13.457670776906326 -1.2864049193474667e-06
    45   1      13.548516638756846      11.761874998314795      1.7765802331979406
    46   1      12.784886799150879      15.000000446295076      1.7765803579685491
    47   1      11.423522892588039       5.659191124839893 -1.2629506725177724e-06
    48   1      13.149569534906664      6.1016300930519378       1.776580293673639
    49   1      12.719595581602295       7.851468465205798 -1.3319702076323236e-06
    50   1      10.556195137949363       9.154910324817223 -1.3493038920629632e-06
    51   1      12.279295873635647      9.5894486773765379      1.7765802201248286
    52   1      10.988920994464022      7.4062225416949872      1.7765802524402439
    53   1      11.827037255595233      11.347277677012357 -1.3486804443217975e-06
    54   1      9.7286499537029609      12.766863612499066 -1.3475188444277827e-06
    55   1       11.32402247641037      13.121354453176366      1.7765802472224164
    56   1      10.135450899623605      10.913720928050992      1.7765802109456588
    57   1      10.988542794257057       15.00000003722559 -1.2212199877074392e-06
    58   1      9.1660885644628216      15.000000513407144      1.7765803395291238
    59   1      9.6975204190631263      5.2184115889812119      1.7765803343233173
    60   1      9.2647501356764721      6.9716873830914921 -1.3086290248627684e-06
    61   1      7.1180543987647358       8.300912544188364 -1.3524476929718383e-06
    62   1      8.8355022153016503      8.7331001886803676      1.7765802197181153
    63   1      7.5446906661878002      6.5391136258594003      1.7765802735657179
    64   1      8.4205448620796535      10.505084341491056 -1.3698924236875133e-06
    65   1      6.2213723964040959      11.761874900954297 -1.3570788418497535e-06
    66   1      8.0397732604521881      12.228484389463006      1.7765802000241278
    67   1      6.6865584213187814      10.053466598654211      1.7765801970088342
    68   1      7.6060064497044992      13.832373599417707 -1.3719563603022614e-06
    69   1      5.4577424218254231      14.999999488827626 -1.2165646820376268e-06
    70   1      5.8417474617789615       13.45767106627423      1.7765802750027839
    71   1      5.8224251911241645      6.1016300757172814 -1.2812471463236649e-06
    72   1       3.661776690495556      7.4062225637006804 -1.3388394048439148e-06
    73   1      5.3924512379038401      7.8514684833964736      1.7765802195955205
    74   1      4.0963786030858698      5.6591911252897376      1.7765803148869852
    75   1      4.9521515439791983      9.5894487685490901 -1.3800474103224252e-06
    76   1      2.8083064946415335      10.913720793582144 -1.3865397230175632e-06
    77   1      4.4998930048769852      11.347277554512118      1.7765801925160656
    78   1      3.2290507750958755      9.1549104201552893      1.7765801928844802
    79   1      3.9968784997138602       13.12135473693769  -1.339611509804589e-06
    80   1      1.8389442070555313      15.000000223624795 -1.2087990274862138e-06
    81   1      3.6613984151029824      14.999999909527844      1.7765803607129647
    82   1      2.4015053801470869      12.766863598703338      1.7765802086986839
    83   1      2.3703761390604412      5.2184116269693419 -1.2331461576152442e-06
    84   1     0.21754639231734996      6.5391136430889958 -1.2991487357302572e-06
    85   1      1.9376058727296499      6.9716874016479551      1.7765802519478113
    86   1       1.508357880450784      8.7331002542733245 -1.3674500727890954e-06
    87   1       1.093400488690017      10.505084321881611       1.776580192026965
    88   1      14.445198743809092      8.3009125487809428      1.7765802230390626
    89   1      0.7126288356345496       12.22848445193992 -1.3649380762796855e-06
    90   1      0.2788622835879413      13.832373408157849       1.776580219616158
    91   1      6.2213712399329548      18.238125154717579      3.5531620954499648
    92   1      5.8417467581075861      16.542329598761654      5.3297435840107328
    93   1       7.118052622725326      21.699087424633944      3.5531621636627557
    94   1      6.6865569972232812       19.94653351873734      5.3297437150419436
    95   1      3.9968773798948996      16.878645555074939       3.553162076849095
    96   1      2.8083053798331465      19.086279015790439       3.553162153475327
    97   1      4.4998917635434612      18.652722400323682      5.3297437009861763
    98   1      2.4015049038401801      17.233136365829893      5.3297436790530819
    99   1      4.9521500156664198      20.410551358888796       3.553162160634554
   100   1      3.6617746782828666      22.593777399523162      3.5531621563210463
   101   1      5.3924493504955535      22.148531493495284      5.3297437285928533
   102   1      3.2290491706008271      20.845089657893368      5.3297437363612525
   103   1      5.8224229423146721       23.89836986390938      3.5531621383931373
   104   1      4.0963762317021262      24.340808806264988      5.3297436923920367
   105   1      13.168891004632025      16.542329331788693      3.5531620115582223
   106   1     0.71262791335742393      17.771515804389793      3.5531621152362827
   107   1      14.013701277223099      19.946533518296178      3.5531621505046642
   108   1      1.0933991848418052      19.494915698295955       5.329743722517513
   109   1      13.548515576630411      18.238125266926346      5.3297436675649426
   110   1      1.5083561755502297       21.26689976763285      3.5531621660192041
   111   1     0.21754417795396208      23.460886314245471      3.5531621396982782
   112   1      1.9376037552992136      23.028312541788409      5.3297437164920494
   113   1      14.445196932561352      21.699087474369207      5.3297437318648671
   114   1      2.3703736809872011      24.781588300092579      3.5531621060614276
   115   1      9.7286490097232186      17.233136293258951      3.5531620872808558
   116   1      11.324022064060328      16.878645218977738      5.3297436304354227
   117   1      11.827036122298333      18.652722538421159      3.5531621238033062
   118   1      10.556193492235741      20.845089675114053      3.5531621684091732
   119   1      12.279294318638273      20.410551374520082       5.329743730560855
   120   1      10.135449689181092      19.086279166836306      5.3297437126281286
   121   1       12.71959364874729      22.148531598387081      3.5531621627417276
   122   1      11.423520509110546      24.340808912162515      3.5531621359211578
   123   1      13.149567232346417      23.898369918233129      5.3297437060665613
   124   1       10.98891898126003      22.593777514112389       5.329743733252311
   125   1      8.0397722410048225      17.771515693501186      5.3297436700593375
   126   1      8.4205435929146724       19.49491570224464      3.5531621431921647
   127   1      8.8355005392976214      21.266899751555826      5.3297437370176688
   128   1      9.2647480747747029      23.028312623600499      3.5531621588656956
   129   1      9.6975179707246966      24.781588411018788      5.3297436978313497
   130   1      7.5446885281156275       23.46088633246984      5.3297437196271975
   131   1     0.27886143744435055      16.167626750400416      5.3297436574519628
   132   1      7.6060059024244238       16.16762690800752      3.5531620725797244
   133   1      14.013702707397185      10.053466540768255       3.553161785277223
   134   1      13.168891881562271      13.457670776906326      3.5531618567447487
   135   1      13.548516638756846      11.761874998314795       5.329743376347607
   136   1      12.784886799150879      15.000000446295076      5.3297435011182177
   137   1      11.423522892588039       5.659191124839893      3.5531618801989948
   138   1      13.149569534906664      6.1016300930519378      5.3297434368233079
   139   1      12.719595581602295       7.851468465205798      3.5531618111794594
   140   1      10.556195137949363       9.154910324817223      3.5531617938457747
   141   1      12.279295873635647      9.5894486773765379      5.3297433632744973
   142   1      10.988920994464022      7.4062225416949872      5.3297433955899116
   143   1      11.827037255595233      11.347277677012357      3.5531617944692226
   144   1      9.7286499537029609      12.766863612499066      3.5531617956308228
   145   1       11.32402247641037      13.121354453176366      5.3297433903720837
   146   1      10.135450899623605      10.913720928050992      5.3297433540953261
   147   1      10.988542794257057       15.00000003722559      3.5531619219296799
   148   1      9.1660885644628216      15.000000513407144      5.3297434826787917
   149   1      9.6975204190631263      5.2184115889812119      5.3297434774729844
   150   1      9.2647501356764721      6.9716873830914921      3.5531618345206426
   151   1      7.1180543987647358       8.300912544188364      3.5531617907019744
   152   1      8.8355022153016503      8.7331001886803676      5.3297433628677835
   153   1      7.5446906661878002      6.5391136258594003      5.3297434167153845
   154   1      8.4205448620796535      10.505084341491056      3.5531617732572434
   155   1      6.2213723964040959      11.761874900954297      3.5531617860708264
   156   1      8.0397732604521881      12.228484389463006      5.3297433431737957
   157   1      6.6865584213187814      10.053466598654211      5.3297433401585019
   158   1      7.6060064497044992      13.832373599417707      3.5531617711933072
   159   1      5.4577424218254231      14.999999488827626      3.5531619265849859
   160   1      5.8417474617789615       13.45767106627423       5.329743418152451
   161   1      5.8224251911241645      6.1016300757172814      3.5531618619025211
   162   1       3.661776690495556      7.4062225637006804      3.5531618043102626
   163   1      5.3924512379038401      7.8514684833964736      5.3297433627451873
   164   1      4.0963786030858698      5.6591911252897376      5.3297434580366536
   165   1      4.9521515439791983      9.5894487685490901      3.5531617631022576
   166   1      2.8083064946415335      10.913720793582144      3.5531617566099443
   167   1      4.4998930048769852      11.347277554512118       5.329743335665734
   168   1      3.2290507750958755      9.1549104201552893      5.3297433360341477
   169   1      3.9968784997138602       13.12135473693769      3.5531618035381585
   170   1      1.8389442070555313      15.000000223624795      3.5531619343506402
   171   1      3.6613984151029824      14.999999909527844      5.3297435038626331
   172   1      2.4015053801470869      12.766863598703338      5.3297433518483519
   173   1      2.3703761390604412      5.2184116269693419      3.5531619100035097
   174   1     0.21754639231734996      6.5391136430889958       3.553161844000932
   175   1      1.9376058727296499      6.9716874016479551      5.3297433950974797
   176   1       1.508357880450784      8.7331002542733245      3.5531617756995955
   177   1       1.093400488690017      10.505084321881611      5.3297433351766337
   178   1      14.445198743809092      8.3009125487809428      5.3297433661887306
   179   1      0.7126288356345496       12.22848445193992       3.553161778211591
   180   1      0.2788622835879413      13.832373408157849      5.3297433627658251
