(written by ASE)

100 atoms
1 atom types

0.0       7.949449743995868  xlo xhi
0.0                      30  ylo yhi
0.0      7.1063262862993364  zlo zhi

Atoms # atomic

     1   1     0.17949409415159212      18.437649615289629      1.7765814386327037
     2   1      7.3418610532335338      16.625336570384945      3.5531630785260067
     3   1      3.3671361768252992      16.625336564152917      1.7765815077972116
     4   1      4.9397701008826287      16.160094772443713      3.5531630707285489
     5   1      5.7933530294653508      17.593729403157695      1.7765814687546211
     6   1      4.9727184876118145       20.01396739494696        1.77658140916532
     7   1      6.5616048935198155      19.173520099084101      3.5531629970639895
     8   1      4.1542189714558768      18.437649610594832      3.5531630128735729
     9   1      7.3481440989443882      20.827102325329321       1.776581383481709
    10   1      6.5567292412317295      23.245147665233688      1.7765813152801235
    11   1     0.19902173553049235      22.436722353343555      3.5531629153417881
    12   1      5.7640322924999658      21.620526573501394      3.5531629299780603
    13   1      7.3527652125485643      24.860702645120568      3.5531628519774521
    14   1      0.9650452355781699      16.160094767226354       1.776581498039786
    15   1      1.8186281559181074      17.593729396127088      3.5531630407265662
    16   1      2.5868800209135694      19.173520098555542      1.7765814268983771
    17   1      1.7893074206700965      21.620526586738734      1.7765813560764385
    18   1      3.3734192300359354      20.827102318939367      3.5531629529814839
    19   1     0.99799361162503208      20.013967394032562      3.5531629796231812
    20   1      4.1737466023655054      22.436722349183924      1.7765813398220001
    21   1      3.3780403459809816      24.860702633553359      1.7765812832215926
    22   1      4.9681653760761364      24.050598616783816      3.5531628732697662
    23   1      2.5820043684074188      23.245147665812908        3.55316289110021
    24   1     0.99344050783853954       24.05059860730897      1.7765813047990264
    25   1      7.1222008325717763      13.318039086000567  2.0845118994980736e-07
    26   1      6.3460592493015673      14.994512939087244      1.7765816305630848
    27   1      7.1309199946892265      5.1392973548794316  2.5296175798985459e-07
    28   1      5.5416474650849867      8.3777615011655371  2.2801755512922416e-07
    29   1      7.1272475142969158      9.1736933218711982      1.7765818098135917
    30   1      6.3350817371175596      6.7547936668876218      1.7765818199801215
    31   1      6.3377309700957918      10.819476025628617  2.3945448097038349e-07
    32   1        3.93665641664633      11.567440985283824  2.3699371625564951e-07
    33   1      5.5663235332093457      12.416819923574522      1.7765818025403275
    34   1      4.7507469249734378       9.988576729332209      1.7765818141486955
    35   1      4.7145119599456358      13.870579763099002  2.4037145893144716e-07
    36   1      2.3713343721416016       14.99451293303963   6.391830174907901e-08
    37   1      3.1474759690833585      13.318039087235931      1.7765817823541341
    38   1      4.7461870469235841      5.9489277671390681  2.4506498589689278e-07
    39   1      2.3603568632428966      6.7547936778948809  2.4821266376846746e-07
    40   1      3.9518776693003934      7.5638006448933623      1.7765818134611036
    41   1      3.1561951178601659      5.1392973617035409      1.7765818250069314
    42   1      3.1525226457503988       9.173693327520084  2.3745083420703013e-07
    43   1     0.77602205591710938      9.9885767293011867  2.4532775024070403e-07
    44   1       2.363006098995267      10.819476021258552      1.7765818091969967
    45   1      1.5669225957058222      8.3777614983716262      1.7765818068431132
    46   1      1.5915986518800151      12.416819919071372  2.3099260829068386e-07
    47   1     0.73978708947046412      13.870579760610013      1.7765818132130722
    48   1      7.9113812904940293       11.56744098883334      1.7765818060805676
    49   1     0.77146217069563894      5.9489277599302426      1.7765818165146072
    50   1      7.9266025410216026      7.5638006403337954  2.3809106743214815e-07
    51   1     0.17949409415159212      18.437649615289629      5.3297445817823723
    52   1      7.3418610532335338      16.625336570384945 -6.4623662146058657e-08
    53   1      3.3671361768252992      16.625336564152917      5.3297446509468802
    54   1      4.9397701008826287      16.160094772443713 -7.2421120117270596e-08
    55   1      5.7933530294653508      17.593729403157695      5.3297446119042879
    56   1      4.9727184876118145       20.01396739494696      5.3297445523149882
    57   1      6.5616048935198155      19.173520099084101 -1.4608567911143942e-07
    58   1      4.1542189714558768      18.437649610594832 -1.3027609470247668e-07
    59   1      7.3481440989443882      20.827102325329321      5.3297445266313774
    60   1      6.5567292412317295      23.245147665233688      5.3297444584297899
    61   1     0.19902173553049235      22.436722353343555 -2.2780787955950437e-07
    62   1      5.7640322924999658      21.620526573501394 -2.1317160914091087e-07
    63   1      7.3527652125485643      24.860702645120568 -2.9117221567268209e-07
    64   1      0.9650452355781699      16.160094767226354      5.3297446411894533
    65   1      1.8186281559181074      17.593729396127088 -1.0242310246296661e-07
    66   1      2.5868800209135694      19.173520098555542       5.329744570048045
    67   1      1.7893074206700965      21.620526586738734      5.3297444992261065
    68   1      3.3734192300359354      20.827102318939367 -1.9016818323445831e-07
    69   1     0.99799361162503208      20.013967394032562  -1.635264870948557e-07
    70   1      4.1737466023655054      22.436722349183924      5.3297444829716678
    71   1      3.3780403459809816      24.860702633553359      5.3297444263712608
    72   1      4.9681653760761364      24.050598616783816 -2.6987990199833949e-07
    73   1      2.5820043684074188      23.245147665812908 -2.5204945785840349e-07
    74   1     0.99344050783853954       24.05059860730897       5.329744447948694
    75   1      7.1222008325717763      13.318039086000567      3.5531633516008578
    76   1      6.3460592493015673      14.994512939087244      5.3297447737127523
    77   1      7.1309199946892265      5.1392973548794316       3.553163396111426
    78   1      5.5416474650849867      8.3777615011655371      3.5531633711672233
    79   1      7.1272475142969158      9.1736933218711982      5.3297449529632592
    80   1      6.3350817371175596      6.7547936668876218      5.3297449631297882
    81   1      6.3377309700957918      10.819476025628617      3.5531633826041489
    82   1        3.93665641664633      11.567440985283824      3.5531633801433835
    83   1      5.5663235332093457      12.416819923574522      5.3297449456899955
    84   1      4.7507469249734378       9.988576729332209      5.3297449572983639
    85   1      4.7145119599456358      13.870579763099002      3.5531633835211265
    86   1      2.3713343721416016       14.99451293303963        3.55316320706797
    87   1      3.1474759690833585      13.318039087235931      5.3297449255038014
    88   1      4.7461870469235841      5.9489277671390681      3.5531633882146538
    89   1      2.3603568632428966      6.7547936778948809      3.5531633913623315
    90   1      3.9518776693003934      7.5638006448933623      5.3297449566107709
    91   1      3.1561951178601659      5.1392973617035409      5.3297449681565983
    92   1      3.1525226457503988       9.173693327520084      3.5531633806005019
    93   1     0.77602205591710938      9.9885767293011867      3.5531633884774179
    94   1       2.363006098995267      10.819476021258552      5.3297449523466645
    95   1      1.5669225957058222      8.3777614983716262      5.3297449499927803
    96   1      1.5915986518800151      12.416819919071372      3.5531633741422763
    97   1     0.73978708947046412      13.870579760610013      5.3297449563627399
    98   1      7.9113812904940293       11.56744098883334      5.3297449492302347
    99   1     0.77146217069563894      5.9489277599302426       5.329744959664275
   100   1      7.9266025410216026      7.5638006403337954      3.5531633812407351
