(written by ASE)

160 atoms
1 atom types

0.0       12.80744680977112  xlo xhi
0.0                      30  ylo yhi
0.0      7.1063262862993364  zlo zhi

Atoms # atomic

     1   1      12.780078514263224      18.480602876719246      1.3324365077833096
     2   1      11.790967741003323       16.72350571039388      3.1090180462385564
     3   1      7.8973846223629751      17.480921420474715      1.3324364920627696
     4   1      9.3847927528314994      16.286654827907739      3.1090180247317032
     5   1      6.8799838572007772      16.150831990281006       3.109018049437585
     6   1      10.378198549827138       17.75285218759106      1.3324364843948036
     7   1        9.86587092932281      20.330887595803205      1.3324365292496558
     8   1       11.32388400104186      19.330184117702089      3.1090180869115587
     9   1      8.8902677617855446      18.853843584668624      3.1090180807355012
    10   1      12.304013156176449      20.917871288141498      1.3324365403267513
    11   1      11.819059713367322      23.400138209931498      1.3324365765908854
    12   1       10.83629428488562      21.866418966864131      3.1090181242078461
    13   1  0.00085472945207400923      24.900817043707832      3.1090181724861803
    14   1      2.9810693429776784      16.286654858867763      1.3324364500221313
    15   1      5.3872443353166162      16.723505730974921      1.3324364790991272
    16   1      4.9201605930937653      19.330184125125214      1.3324365173445079
    17   1      6.3763551185288412      18.480602846011635      3.1090180864341139
    18   1      3.9744751357778818      17.752852218674775      3.1090180583595806
    19   1      7.3894156338661157      19.929577035643092       1.332436530371427
    20   1      6.8967000380189676      22.407394416272496      1.3324365652926622
    21   1      8.3837499370642554      21.376274158068497      3.1090181194135309
    22   1      5.9002897574641038      20.917871268351803      3.1090181152269665
    23   1      9.3657062609612147      22.866908137862936      1.3324365680129735
    24   1      10.345377055803802      24.383445114099345      3.1090181639276131
    25   1      7.8862423852435795       23.88782310117486      3.1090181589653856
    26   1     0.47626046640108327      16.150832013108072      1.3324364727412821
    27   1      1.4936612154239888      17.480921455460248      3.1090180613120713
    28   1      2.4865443495383728      18.853843624340016      1.3324365070591133
    29   1      1.9800265217678688      21.376274197462664      1.3324365450024656
    30   1      3.4621475205957011       20.33088762084725      3.1090181009749354
    31   1     0.98569221584486177      19.929577076561799      3.1090180983045705
    32   1      4.4325708832766617      21.866418965982575      1.3324365558784534
    33   1      3.9416536532731188      24.383445109937185      1.3324365938805569
    34   1      5.4153363165810804       23.40013818462424      3.1090181529159593
    35   1      2.9619828513265114       22.86690815988689      3.1090181413916316
    36   1      6.4045781431517508      24.900817009698102      1.3324366038135234
    37   1      0.4929766244008762      22.407394454924486      3.1090181327276256
    38   1      1.4825189734775623      23.887823133866476      1.3324365841523433
    39   1      11.790967562971234      13.276494185401504       3.109017915259559
    40   1      10.856824971800966      14.999999970154306      1.3324364138659586
    41   1      10.836293978209603       8.133581011782681      3.1090177721101893
    42   1      11.819059358265125      6.5998617887385649      1.3324361570176013
    43   1      11.323883753926797      10.669815840621453      3.1090178451175832
    44   1      8.8902675093413652      11.146156361185845      3.1090178628621832
    45   1      10.378198317136764      12.247147742192425      1.3324363287571515
    46   1      9.8658706547753088      9.6691123599231616      1.3324362477966567
    47   1       9.384792589327839      13.713345088503843      3.1090179439044316
    48   1      6.8799836756222357      13.849168022361766      3.1090179207117843
    49   1       8.217169317054271      14.999999963743562      1.3324364135413145
    50   1      7.8973844033180125      12.519078545102616      1.3324363224950706
    51   1      10.345376658746632      5.6165548721306777      3.1090177072258918
    52   1      7.8862419988694032      6.1121768709483462      3.1090177194703315
    53   1      9.3657059145843018      7.1330918335721236      1.3324361747051785
    54   1      8.3837496332493409      8.6237257989724014      3.1090177868139364
    55   1      5.9002894702891222      9.0821287132203423      3.1090177943171233
    56   1      7.3894153595331122       10.07042292987849      1.3324362514011492
    57   1      6.8966997062498594      7.5926055503433361      1.3324361859868874
    58   1      6.3763548758988149       11.51939712203307      3.1090178579264287
    59   1      3.9744749093885154      12.247147751558671       3.109017898029435
    60   1       5.387244150209006      13.276494187640225      1.3324363440288476
    61   1      4.9201603470425326      10.669815838487253      1.3324362734404591
    62   1      4.4531015648591046      14.999999985202436      3.1090179862306315
    63   1      1.8134459156301779      15.000000001839766      3.1090179844852615
    64   1      2.9810691871058026      13.713345110857915      1.3324363718899355
    65   1      6.4045777175961183       5.099182965608648      1.3324361214068681
    66   1      5.4153359470872617      6.5998617859390265      3.1090177307164497
    67   1      2.9619825046040038      7.1330918241076091      3.1090177472467269
    68   1      4.4325705653927754       8.133581005696044      1.3324362017275506
    69   1      3.9416532498974934      5.6165548673451298      1.3324361357112997
    70   1      3.4621472443863293      9.6691123568152904      3.1090178210601374
    71   1     0.98569196045206742      10.070422939647074      3.1090178223909364
    72   1      2.4865441029921951      11.146156373211682      1.3324362906067906
    73   1      1.9800262282812733      8.6237257975935933      1.3324362149553655
    74   1      1.4936609990207004      12.519078567054834      3.1090178919205593
    75   1     0.47626026471622596      13.849168043870634      1.3324363460871478
    76   1      12.780078293580679      11.519397145707302      1.3324362824635549
    77   1  0.00085431334777881561       5.099182956292168      3.1090176943555274
    78   1      1.4825185922048438      6.1121768597352144      1.3324361473435395
    79   1     0.49297630136933657      7.5926055478554275      3.1090177537139487
    80   1      12.304012879560373      9.0821287177488443      1.3324362235905058
    81   1      12.780078514263224      18.480602876719246      4.8855996509329778
    82   1      11.790967741003323       16.72350571039388      6.6621811893882237
    83   1      7.8973846223629751      17.480921420474715      4.8855996352124365
    84   1      9.3847927528314994      16.286654827907739      6.6621811678813696
    85   1      6.8799838572007772      16.150831990281006      6.6621811925872541
    86   1      10.378198549827138       17.75285218759106      4.8855996275444715
    87   1        9.86587092932281      20.330887595803205      4.8855996723993229
    88   1       11.32388400104186      19.330184117702089      6.6621812300612255
    89   1      8.8902677617855446      18.853843584668624      6.6621812238851676
    90   1      12.304013156176449      20.917871288141498      4.8855996834764195
    91   1      11.819059713367322      23.400138209931498      4.8855997197405534
    92   1       10.83629428488562      21.866418966864131      6.6621812673575143
    93   1  0.00085472945207400923      24.900817043707832      6.6621813156358476
    94   1      2.9810693429776784      16.286654858867763      4.8855995931717979
    95   1      5.3872443353166162      16.723505730974921      4.8855996222487956
    96   1      4.9201605930937653      19.330184125125214      4.8855996604941767
    97   1      6.3763551185288412      18.480602846011635      6.6621812295837817
    98   1      3.9744751357778818      17.752852218674775      6.6621812015092488
    99   1      7.3894156338661157      19.929577035643092      4.8855996735210958
   100   1      6.8967000380189676      22.407394416272496      4.8855997084423297
   101   1      8.3837499370642554      21.376274158068497      6.6621812625631973
   102   1      5.9002897574641038      20.917871268351803      6.6621812583766351
   103   1      9.3657062609612147      22.866908137862936      4.8855997111626417
   104   1      10.345377055803802      24.383445114099345      6.6621813070772813
   105   1      7.8862423852435795       23.88782310117486      6.6621813021150533
   106   1     0.47626046640108327      16.150832013108072      4.8855996158909489
   107   1      1.4936612154239888      17.480921455460248      6.6621812044617394
   108   1      2.4865443495383728      18.853843624340016      4.8855996502087811
   109   1      1.9800265217678688      21.376274197462664      4.8855996881521326
   110   1      3.4621475205957011       20.33088762084725      6.6621812441246027
   111   1     0.98569221584486177      19.929577076561799      6.6621812414542392
   112   1      4.4325708832766617      21.866418965982575      4.8855996990281207
   113   1      3.9416536532731188      24.383445109937185      4.8855997370302253
   114   1      5.4153363165810804       23.40013818462424      6.6621812960656275
   115   1      2.9619828513265114       22.86690815988689      6.6621812845413002
   116   1      6.4045781431517508      24.900817009698102        4.88559974696319
   117   1      0.4929766244008762      22.407394454924486      6.6621812758772929
   118   1      1.4825189734775623      23.887823133866476      4.8855997273020106
   119   1      11.790967562971234      13.276494185401504      6.6621810584092271
   120   1      10.856824971800966      14.999999970154306      4.8855995570156256
   121   1      10.836293978209603       8.133581011782681      6.6621809152598566
   122   1      11.819059358265125      6.5998617887385649       4.885599300167268
   123   1      11.323883753926797      10.669815840621453      6.6621809882672514
   124   1      8.8902675093413652      11.146156361185845      6.6621810060118509
   125   1      10.378198317136764      12.247147742192425      4.8855994719068194
   126   1      9.8658706547753088      9.6691123599231616      4.8855993909463233
   127   1       9.384792589327839      13.713345088503843      6.6621810870541003
   128   1      6.8799836756222357      13.849168022361766      6.6621810638614516
   129   1       8.217169317054271      14.999999963743562      4.8855995566909831
   130   1      7.8973844033180125      12.519078545102616      4.8855994656447379
   131   1      10.345376658746632      5.6165548721306777      6.6621808503755595
   132   1      7.8862419988694032      6.1121768709483462      6.6621808626199996
   133   1      9.3657059145843018      7.1330918335721236      4.8855993178548474
   134   1      8.3837496332493409      8.6237257989724014      6.6621809299636041
   135   1      5.9002894702891222      9.0821287132203423      6.6621809374667906
   136   1      7.3894153595331122       10.07042292987849      4.8855993945508178
   137   1      6.8966997062498594      7.5926055503433361      4.8855993291365554
   138   1      6.3763548758988149       11.51939712203307      6.6621810010760978
   139   1      3.9744749093885154      12.247147751558671      6.6621810411791014
   140   1       5.387244150209006      13.276494187640225      4.8855994871785144
   141   1      4.9201603470425326      10.669815838487253      4.8855994165901269
   142   1      4.4531015648591046      14.999999985202436      6.6621811293802979
   143   1      1.8134459156301779      15.000000001839766      6.6621811276349288
   144   1      2.9810691871058026      13.713345110857915      4.8855995150396039
   145   1      6.4045777175961183       5.099182965608648      4.8855992645565358
   146   1      5.4153359470872617      6.5998617859390265      6.6621808738661166
   147   1      2.9619825046040038      7.1330918241076091      6.6621808903963942
   148   1      4.4325705653927754       8.133581005696044      4.8855993448772175
   149   1      3.9416532498974934      5.6165548673451298      4.8855992788609672
   150   1      3.4621472443863293      9.6691123568152904      6.6621809642098038
   151   1     0.98569196045206742      10.070422939647074      6.6621809655406041
   152   1      2.4865441029921951      11.146156373211682      4.8855994337564592
   153   1      1.9800262282812733      8.6237257975935933      4.8855993581050328
   154   1      1.4936609990207004      12.519078567054834      6.6621810350702271
   155   1     0.47626026471622596      13.849168043870634      4.8855994892368155
   156   1      12.780078293580679      11.519397145707302       4.885599425613222
   157   1  0.00085431334777881561       5.099182956292168      6.6621808375051943
   158   1      1.4825185922048438      6.1121768597352144      4.8855992904932064
   159   1     0.49297630136933657      7.5926055478554275      6.6621808968636174
   160   1      12.304012879560373      9.0821287177488443      4.8855993667401725
