(written by ASE)

72 atoms
1 atom types

0.0      4.0448893359587661  xlo xhi
0.0      7.0059542204996355  ylo yhi
0.0      44.585619009728035  zlo zhi

Atoms # atomic

     1   1      2.0225087115469118      2.7879202777505037      8.0881631720753511
     2   1  6.4043563078040693e-05      5.7835455494468677      7.5997303753799637
     3   1  6.4043569042823438e-05      1.2495543897630261      8.3431618803270222
     4   1      2.0225087115480975      5.2390777298794342      8.9798390385292866
     5   1   6.404357047254092e-05      3.7506264552765858      9.1347548859245027
     6   1      2.0225087115539817     0.73191968524927464      9.6613956421655143
     7   1      2.0225087115624554      3.2211609102043792      10.500941013730133
     8   1  6.4043577392189395e-05      6.2844422373853082      10.007724534199179
     9   1  6.4043586043482172e-05      1.7725855372131325      10.738443778628326
    10   1      2.0225087115740679      5.7625327562061974      11.371676633153387
    11   1      2.0225087115859846       1.250687333913294      12.128720483076947
    12   1  6.4043598055863143e-05      4.2950082282810405      11.532240929554899
    13   1      2.0225087116028484      3.7683915722411339      12.954563534306788
    14   1      4.0449533795712256      6.8331984649805841      12.436606240347103
    15   1      4.0449533795862775      2.3187064153634691      13.200475723978979
    16   1      2.0225087116213452      6.3013769656475507      13.854432448713663
    17   1       4.044953379604852      4.8249759386412432      13.994117157269384
    18   1      2.0225087116378524      1.7810210572594858      14.591614898458356
    19   1      2.0225087116628346      4.2855081493136638      15.413410169218691
    20   1      4.0449533796258796     0.35989999542394219      14.940056671719853
    21   1      2.0225087116842744      6.8604890981517848      16.380738211332211
    22   1      4.0449533796460839        2.83126053899143      15.669503997512557
    23   1      4.0449533796775032      5.3477569859234571      16.423406864373725
    24   1      2.0225087117014908      2.2975622426268196      17.025229670225958
    25   1      4.0449533797034505     0.85811155664364669      17.544967716164773
    26   1      2.0225087117598477      4.8525937411372118      17.819432566425053
    27   1      2.0225087117783374      7.3357334689422506      19.137170978349388
    28   1      4.0449533797114912      3.3637878223139812      18.083618479795703
    29   1      4.0449533797804289       5.701893254751889      18.857779804970939
    30   1      2.0225087117478355      2.9469166789185168      19.348445743140054
    31   1      4.0449533798343094       1.635968444795979      20.009844298053988
    32   1      2.0225087120841545      5.1229032904519958      20.428224049698226
    33   1      2.0225087122091678      6.8827327804569398      22.337302539679825
    34   1      4.0449533801452962      3.8442076150867699      21.314134037526525
    35   1      4.0449533801692796      6.4615639025645537      21.074683331031956
    36   1      2.0225087121426681      2.2258050972263885       21.57999613492581
    37   1      4.0449533801637445      1.3625601280020292      22.609378213931311
    38   1      2.0225087122241514      4.3760072773354421      22.902284740895794
    39   1      2.0225087122529941      1.8565316212111684       24.01022321088082
    40   1  6.4044265186280377e-05      5.8137952164891944      23.397304297130656
    41   1  6.4044288729673375e-05      3.3672914821666664       24.05801980749726
    42   1      2.0225087122870566      6.3448811095551498      24.756506379118413
    43   1  6.4044313829445164e-05     0.79511236662491691      25.015764024139713
    44   1      2.0225087123139045        3.86692830590327      25.506834368390511
    45   1   6.404434384770458e-05      5.2955810480010266      25.826210822446168
    46   1      2.0225087123411716       1.326475201848637      26.436958217640711
    47   1      2.0225087123656666      5.8219056162748792      27.227422978994444
    48   1  6.4044367172979547e-05      2.8031682818289627      26.589107901678982
    49   1  6.4044392730477532e-05     0.27163308375371681      27.473161563662156
    50   1      2.0225087123886936      3.3149669536707913      28.026130312190059
    51   1      2.0225087124110264     0.78843065288047953      28.895013354854672
    52   1  6.4044416010024117e-05      4.7633928036325335      28.278693137611238
    53   1  6.4044436188368911e-05      2.2527266629233931      29.086680038417349
    54   1      2.0225087124311876      5.2792012058874942      29.695575344692188
    55   1  6.4044457126527832e-05      6.7305879909685205      29.938733580544973
    56   1      2.0225087124490964       2.762349269816212      30.520555517850902
    57   1  6.4044474508983875e-05      4.2164477568516316      30.736378543659683
    58   1      2.0225087124657772     0.23984551749990266      31.359689457069322
    59   1      2.0225087124799623      4.7375655237539638       32.15256026597973
    60   1  6.4044489658290462e-05      1.6954526323886443      31.566702385806288
    61   1      2.0225087124921619      2.2056030918807181       33.00124683950844
    62   1  6.4044504757403435e-05      6.1733870726851592      32.412749365381124
    63   1      2.0225087125025842    -0.32333584559254519      33.819010214257979
    64   1  6.4044516174912341e-05      3.6647676122969544      33.191070461390986
    65   1      2.0225087125108026      4.1767224868375692       34.56109029344146
    66   1  6.4044525547631305e-05       1.132449552457282       34.03380611708242
    67   1  6.4044533207906741e-05      5.6390639041054511      34.882279598481873
    68   1      2.0225087125162986      1.6512497376101818      35.404500511250966
    69   1  6.4044538838404586e-05       3.138743653228957       35.58025774604203
    70   1      2.0225087125177508    -0.86028545357402875      36.212303788621497
    71   1      2.0225087125234844      3.6664511371674773      36.964551049568101
    72   1  6.4044539406141619e-05     0.68612133497931338      36.447116022991871
