(written by ASE)

48 atoms
1 atom types

0.0      4.0448893359587661  xlo xhi
0.0      4.9539574433030067  ylo yhi
0.0      42.035724312997331  zlo zhi

Atoms # atomic

     1   1 -5.4099984064473265e-05    -0.41519395715093432      7.9519361377072384
     2   1 -5.4099984064682638e-05      2.0617847644990803      7.9519361377096889
     3   1      2.0223905675165907     0.82328898276098694      8.7019732613180452
     4   1      2.0223905675165899      3.3002677044377777      8.7019732613176828
     5   1 -5.4099345257079563e-05     0.82338062328993789      10.097657584420588
     6   1 -5.4099345258075871e-05      3.3003593449065494      10.097657584425345
     7   1      2.0223905661015027      2.0618844892252453      10.888324932804162
     8   1      2.0223905661015023    -0.41509423242818377      10.888324932733912
     9   1 -5.4093251702365336e-05      2.0621509219640708      12.346642556305504
    10   1 -5.4093251700560593e-05      4.5391296436026538      12.346642556432807
    11   1       2.022390549380936     0.82370971691735739      13.172743311919637
    12   1      2.0223905493809391       3.300688438186306      13.172743311926242
    13   1      4.0448352932423459      3.3010810501826278      14.613419269194056
    14   1      4.0448352932423433      5.7780597707412671      14.613419269224714
    15   1      2.0223904529038363      2.0625899523195761       15.49508174616289
    16   1      2.0223904529046095      4.5395686740225329      15.495081747014128
    17   1      4.0448353267829589         2.0629992300033       16.84429661658594
    18   1      4.0448353267822661      4.5399779519330004      16.844296611982326
    19   1      2.0223905452306474     0.82460492351758308      17.874682567338869
    20   1      2.0223905452306346      3.3015836440615201       17.87468256791967
    21   1 -5.4100572294756493e-05      2.0637259786517408      19.243014881575693
    22   1 -5.4100572341337044e-05      4.5407046995825011      19.243014886730226
    23   1      2.0223905699031293     0.82529578337868648      20.359925676769194
    24   1       2.022390569903195      3.3022745063063725      20.359925674290345
    25   1 -5.4104275267753479e-05      2.0642318122972623      21.675789392746157
    26   1 -5.4104275233270253e-05      4.5412105352556633       21.67578939029011
    27   1      2.0223905678968435     0.82580161657119833      22.792695987292465
    28   1      2.0223905678967173      3.3027803375217637      22.792695992593007
    29   1 -5.4050253690063246e-05      2.0649226501384281      24.161031112967919
    30   1 -5.4050253713122051e-05      4.5419013706563005      24.161031113517296
    31   1      2.0223903646386687      5.7804857821298388      25.191419754132628
    32   1      2.0223903646351817      3.3035070607491885      25.191419749360659
    33   1      4.0448354913565092     0.82693760813870143      26.540631577297837
    34   1      4.0448354913603248      3.3039163298402543       26.54063157815385
    35   1       2.022390439000683      2.0654252338029329      27.422294018268538
    36   1       2.022390439000687      4.5424039565675622       27.42229401823684
    37   1 -5.4059353940544806e-05      2.0658178514854186      28.862970652097346
    38   1 -5.4059353935514914e-05      4.5427965727446553       28.86297065209806
    39   1      2.0223905517500036     0.82737664739945271      29.689071379063034
    40   1      2.0223905517499996      3.3043553690393312      29.689071379193855
    41   1 -5.4097313750921417e-05     0.82764309239686051      31.147388816013809
    42   1 -5.4097313748969629e-05      3.3046218140473864      31.147388815939184
    43   1      2.0223905652111118      2.0661469590996875      31.938056178392895
    44   1        2.02239056521111     -0.4108317625883382      31.938056178397815
    45   1 -5.4099896683893754e-05    -0.41074011525269172      33.333740562720223
    46   1 -5.4099896683014764e-05      2.0662386063736178      33.333740562721005
    47   1      2.0223905674827813     0.82774282410630406      34.083777676143811
    48   1      2.0223905674827813      3.3047215457594716      34.083777676142475
