(written by ASE)

42 atoms
1 atom types

0.0      4.0448893359587661  xlo xhi
0.0      4.7430531818389214  ylo yhi
0.0      51.483037568012172  zlo zhi

Atoms # atomic

     1   1      4.0448094014714311      5.9182183683846059      12.838035576163843
     2   1      2.0223647334875485      2.1225861652391926      14.028580860361284
     3   1      4.0448094014654759      3.5876572189674887      14.005737807826009
     4   1      2.0223647334794044      4.5365685433177525      15.125402421640921
     5   1      4.0448094014588056      1.2901613478930474      15.272809006191672
     6   1      2.0223647334667079      2.2188255734879418      16.440842305132637
     7   1      4.0448094014454483      3.6830157417577838      16.430101315032299
     8   1      2.0223647334495012      4.6013277026245651      17.639147901800044
     9   1      4.0448094014275595      1.3273787580837899      17.713838171548772
    10   1       2.022364733427644      2.2428187825784844      18.921628377536329
    11   1      4.0448094014068117      3.7131196924815955      18.915905343548044
    12   1      2.0223647334030166      4.6201898640549235      20.143770643051138
    13   1      4.0448094013813405      1.3495224927604517      20.177746994334051
    14   1      2.0223647333745554      2.2556988694617837       21.40183808303064
    15   1      4.0448094013539873      3.7270428299609639      21.399045488370888
    16   1      2.0223647333444159    -0.11291425307496643      22.634303513150154
    17   1      4.0448094013230476      1.3588284108669193      22.649165836187194
    18   1      2.0223647333117474      2.2615418101780049      23.882499044242813
    19   1      4.0448094012913289      3.7328211245431113      23.879653635709378
    20   1      2.0223647332786396    -0.10887595558731172      25.118461957880626
    21   1      4.0448094012575977      1.3624704019795524       25.12519105896013
    22   1      4.0448094012243203     -1.0086125289130252       26.35833943715825
    23   1      2.0223647332445407      2.2631163477010947      26.364196927515028
    24   1      4.0448094011905873      1.3626578798480544      27.603856696446972
    25   1      2.0223647332114365    -0.10863401529738718       27.60016508121128
    26   1      4.0448094011588642      3.7325580619627376      28.834327294512573
    27   1      2.0223647331787551      2.2608558340798477      28.848373069540312
    28   1      4.0448094011279085      1.3585670755511168      30.084391722258129
    29   1      2.0223647331485961    -0.11279058376923284      30.080858408899953
    30   1      4.0448094011005393      3.7248007859032422      31.305647022830232
    31   1      2.0223647331201122      2.2524765350829337      31.338941724081497
    32   1      4.0448094010750459      1.3460434542271758      32.567417906377422
    33   1      2.0223647330954639      4.6187743936168548      32.561124924628274
    34   1      4.0448094010542821      3.7038439940047554      33.769413818210232
    35   1      2.0223647330735819      2.2348122638252699      33.843599853960662
    36   1      4.0448094010363764      1.3169336705647146      35.053113393964189
    37   1      2.0223647330563601       4.595762002538569      35.041967584152459
    38   1      4.0448094010230182      3.6674606744404952      36.210311699484905
    39   1       2.022364733043656      2.1708266900356343      36.357405064194062
    40   1      4.0448094010163462      1.2221182662811574       37.47745359014457
    41   1      2.0223647330355097      4.5000383918256768      37.454285729110403
    42   1      4.0448094010103928      3.5527336319009661      38.644995603950271
