(written by ASE)

68 atoms
1 atom types

0.0      6.3955321468312345  xlo xhi
0.0      3.8373190860986433  ylo yhi
0.0      51.483037568012172  zlo zhi

Atoms # atomic

     1   1      3.1567356864986897       5.840574932544782      11.440042160186369
     2   1    -0.13153358318854697      3.9219128451492669      9.4956961205394705
     3   1      1.5929825992485824      2.0032533019881003      9.4957733163162104
     4   1      1.5617342737022828      3.9219149842729251      11.321408104881939
     5   1      4.6997885701611466      3.9219153894343162      11.439826490117811
     6   1    -0.10066950275698253      2.0032554410337591      11.321279165199689
     7   1   -0.034596707673310731      3.9219182774444246      13.216829586057427
     8   1      1.4953875627736311      2.0032587346097035      13.216870255847599
     9   1      3.0909094098031247      3.9219185516811614      13.266347611046875
    10   1       4.765740041128061      2.0032590086792568      13.266337589978393
    11   1   -0.047242027506472807       2.003264298916509      15.173244007935404
    12   1      1.5079551858472806      3.9219238410025339      15.173094482446283
    13   1      3.1069522085521126      2.0032641639560671      15.141790105215389
    14   1      4.7493158682343708      3.9219237083577503      15.141948459109312
    15   1     -1.6734218872180038      2.0032696015989941       17.07110300456144
    16   1      1.5351997836833977      2.0032696168898583      17.094999559638488
    17   1      3.1335080397670558      3.9219291436658366      17.071113794310836
    18   1      3.1364852462509689      2.0032763586899272      19.007811172526651
    19   1    -0.07459250806982444    0.084610075384319264      17.095069077704537
    20   1   -0.077625002900054599      2.0032762827787591      19.008572224046123
    21   1      1.5377006572624701    0.084616742189010233      19.009008068345533
    22   1      4.7187022729552464      3.9219359015879705      19.007568845783108
    23   1      4.7249245191587708      2.0032840028459589      20.936038837736586
    24   1   -0.072316824203948207    0.084624406859295079      20.930088155326558
    25   1      1.5310789211648266      2.0032839535201217      20.930397720597103
    26   1      3.1304780392541671    0.084624469023862878      20.936759845973825
    27   1      4.7281819714813773      3.9219518868291088      22.860580914979842
    28   1   -0.069941133299635153       2.003292338774266       22.85668782593044
    29   1      1.5271722814609112    0.084632806857783377      22.856684792640252
    30   1      3.1275415180279946       2.003292342768852      22.859755467298388
    31   1      4.7275068125831163      2.0033011742040623      24.785144924587051
    32   1       6.326143802541881      3.9219607337686115      24.784259567758387
    33   1      1.5272111630805578       2.003301162693945      24.781090555765022
    34   1      3.1263434902660889    0.084641629481566241      24.783621521984262
    35   1      3.1222978055895663      2.0033101490449909       26.70725499133929
    36   1      6.3295413036379404      2.0033101580546413      26.708414934916917
    37   1       1.528080465536146    0.084650594990465497      26.708016444644247
    38   1      4.7259967309220414    0.084650666949939363      26.710839692455952
    39   1      1.5281557906483623       2.003319052051046      28.637266496021702
    40   1      6.3318542738454235      3.9219786504890597       28.63555849032749
    41   1      6.3192896614753797       2.003327466111529      30.555448065137508
    42   1       4.725277646295952      2.0033190678975012      28.626846720522284
    43   1       3.119356361520166     0.08465956632082354      28.635227111444603
    44   1       3.131311834111417      2.0033274690991072      30.555601024464686
    45   1      7.9232412523305982      3.9219871992475608      30.576459357806453
    46   1      4.7251367022177027    0.084667855234016792      30.547917046528564
    47   1      4.7250265057056104      2.0033353334517616      32.472562526294553
    48   1      1.5272757897920981     -1.8339835351913554      32.479633020387674
    49   1      6.2898031183860823    0.084676091032083636      32.491411375928905
    50   1       6.295012801521545      2.0033424390642209       34.39505781704738
    51   1      3.1602782599109163    0.084676092214920812      32.491580304879434
    52   1      3.1546262387252635      2.0033424389227998      34.395122542369968
    53   1      7.9225548848023566      3.9220020669368529      34.374307641714012
    54   1      4.7248553173296903    0.084683275408522982      34.472321757028219
    55   1      4.7246724084437872      2.0033497017077044       36.37100693981872
    56   1      3.0422195652495869    0.084690168996816223       36.36116407917558
    57   1      1.5268984390250568      2.0033492062641978       36.23977727178189
    58   1      6.4071182607382617      3.9220092554423203      36.361169493500775
    59   1      4.7246027124460488    0.084696220416122431      38.179507858844396
    60   1      2.9942300817560894      2.0033548647730393      38.205392279649843
    61   1      1.5268040750833933    0.084695755044999266      38.398815522140119
    62   1      6.4549249606401906      2.0033548647524615      38.205368962699602
    63   1      4.7245676102693039      2.0033597757394817      39.836683402363846
    64   1      3.2553551440351178    0.084700343027896266       40.18776606220657
    65   1      1.5267518077300848      2.0033591630500585      40.192011056381801
    66   1     -0.2017838182992984    0.084700342949891136      40.187793984401999
    67   1      6.0114623800790108      2.0033613662997096       41.87166614556574
    68   1      3.4375558726897366      2.0033613667142158      41.871618009362564
