(written by ASE)

72 atoms
1 atom types

0.0      4.0496852345588978  xlo xhi
0.0      7.0142609609931217  ylo yhi
0.0      44.638482781770897  zlo zhi

Atoms # atomic

     1   1      2.0248181951508681      3.5070078418242203       7.893754609538437
     2   1 -2.4416163595320079e-05      7.0141383712569372      7.8937545931875066
     3   1 -2.3589624139277547e-05      2.3379663717518535      8.6340424815905834
     4   1      2.0248190336242922       5.845096841814386      8.6340423890939455
     5   1 -2.2394529740399637e-05       4.676055849822121      9.3230249558810794
     6   1      2.0248202182013149      1.1689253469354419      9.3230249359096948
     7   1       2.024823340564033      3.5070175160752761       10.25159196048026
     8   1 -1.9276600251759752e-05      7.0141480247154444      10.251591946214015
     9   1  -1.638543695349232e-05      2.3379784482066568      11.082231175938745
    10   1      2.0248262374853088      5.8451089183313707      11.082231098888231
    11   1      2.0248287013651747      1.1689383107765265      11.857310594038134
    12   1 -1.3906252892809989e-05      4.6760688122717315      11.857310601772298
    13   1      2.0248324496286942      3.5070306636590263       12.71517951427065
    14   1      4.0496750594447537      7.0141611482681494      12.715179509057689
    15   1      4.0496789937485165       2.337992308972471      13.546368367413775
    16   1      2.0248363709957684      5.8451227897610547       13.54636833157141
    17   1       4.049682750939902      4.6760837367479402       14.35191934277654
    18   1      2.0248401369411151      1.1689532407005334      14.351919339868399
    19   1      2.0248445334565273      3.5070445429684356      15.196114181157398
    20   1      4.0496871553452003 -8.5935412646283377e-05      15.196114189663776
    21   1      2.0248486764364499      5.8451348714377431      16.025264269406428
    22   1      4.0496912872785193      2.3380043916815954      16.025264277029475
    23   1      4.0496952577407743      4.6760935974443054      16.820889310839533
    24   1      2.0248526370065543      1.1689631184929594      16.820889308741254
    25   1      4.0497004170432023 -7.9362693122194829e-05      17.686926165883111
    26   1      2.0248578022316699      3.5070511250567877      17.686926158387383
    27   1      2.0248617686789463        5.84513805809127      18.525645455836912
    28   1      4.0497043843909646      2.3380075758159635      18.525645434819239
    29   1       4.049707665357718      4.6760923309733302      19.250778406992954
    30   1      2.0248650427800463      1.1689618607562255      19.250778400339598
    31   1      4.0497150135449926 -9.0167692272025084e-05      20.194236261220915
    32   1      2.0248724035119299      3.5070403347240475      20.194236255897302
    33   1       2.024878499845693      5.8451196910561167      21.105555899051311
    34   1      4.0497211248770455      2.3379892112363279      21.105555830351989
    35   1      4.0497232313722371      4.6760735868007561      21.599827186365506
    36   1      2.0248806204524561      1.1689431220471036      21.599827166550234
    37   1      4.0497507292869033 -0.00013319727285453478      22.735205616212376
    38   1      2.0249081061970986      3.5069972749444842      22.735205628172078
    39   1      2.0249357201539686      1.1688774965527471       23.86933972689949
    40   1  9.3101327791341842e-05      4.6760079771561029      23.869339748754399
    41   1  9.5355570805346672e-05      2.3379195446085155      24.366491471324888
    42   1      2.0249379724488183      5.8450500307940958      24.366491469411724
    43   1   0.0001019658455322558 -0.00016860768356025574      25.276350875876911
    44   1      2.0249445815091622      3.5069618754175464      25.276350879531901
    45   1  0.00011008729040886756      4.6760063830064462      26.218083168882433
    46   1      2.0249527084578482       1.168875903738464      26.218083150032349
    47   1       2.024956440588618      5.8450503604982558       26.94665502491118
    48   1  0.00011382795557450594      2.3379198739796827      26.946655025542256
    49   1  0.00011828493741332574 -0.00016598336642425406      27.784779526081181
    50   1       2.024960904792577      3.5069645005079599      27.784779524575566
    51   1      2.0249665992901331      1.1688786246820315      28.645682822934919
    52   1  0.00012398491949217036      4.6760091025829533      28.645682832219297
    53   1  0.00012849943681861643      2.3379235736215054      29.448829634014583
    54   1      2.0249711202795173      5.8450540559896762        29.4488296339043
    55   1  0.00013280996654654122      7.0141002724888279      30.280472154283988
    56   1      2.0249754242572902      3.5069697918685687       30.28047215475447
    57   1  0.00013705855848777205      4.6760165286748681      31.104770869122195
    58   1      2.0249796762068515      1.1688860477422371      31.104770863347209
    59   1      2.0249837975233311      5.8450631189126456       31.93053098890103
    60   1  0.00014117815643979436      2.3379326369735711      31.930530989030391
    61   1      2.0249875520756153      3.5069784176290644         32.783565067725
    62   1    0.000144935835888773      7.0141088966989438      32.783565067482719
    63   1      2.0249901409245701      1.1688929693443424      33.564323316881818
    64   1  0.00014752429825544086      4.6760234497717219      33.564323321171749
    65   1      2.0249930902717712      5.8450685268395208      34.393683441063231
    66   1    0.000150472098880951      2.3379380432998653      34.393683439819682
    67   1  0.00015362425002140635       7.014113645506896      35.320360008620924
    68   1      2.0249962421233301      3.5069831659970543      35.320360006157593
    69   1  0.00015485391122692396      4.6760269061606081      36.011624493419276
    70   1      2.0249974705555776      1.1688964260361077      36.011624491297262
    71   1      2.0249983234245335       5.845070161549283        36.7513488616407
    72   1  0.00015570693297288406      2.3379396810094253       36.75134885917366
