(written by ASE)

42 atoms
1 atom types

0.0      4.0496852345588978  xlo xhi
0.0       4.748676871444693  ylo yhi
0.0       51.54407939321316  zlo zhi

Atoms # atomic

     1   1      4.0491263875051162      4.9248720485166393      13.304655445508255
     2   1      2.0242853861223757      1.4492445274541725      13.852278637048153
     3   1      4.0491304616909209      2.6908778539997131      14.399941157504234
     4   1      2.0242914022279552      3.9908635889582125      14.894769539954902
     5   1      4.0491424017710971     0.54367573160294969       15.63459449317028
     6   1      2.0243067185236097      1.8722224615743561      16.235154152207983
     7   1      4.0491556225412761      3.1404989481867598       16.82836893439428
     8   1      2.0243198617630482      4.4330392968813026      17.412136817870504
     9   1      4.0491712224424878       0.985879759816227      18.040185851341409
    10   1      2.0243407339867163      2.2807156518648615      18.681232248654453
    11   1      4.0491926043852038      3.5843186619425702       19.24489760888709
    12   1      2.0243658940048981      4.8586525601935024      19.904019079858497
    13   1      4.0492176567438252      1.4310018610409652      20.447053662699293
    14   1      2.0243990185590417      2.6906983415889814      21.161493006536741
    15   1      4.0492502622320874       4.029997497145656      21.639131100649081
    16   1      2.0244500562374288     0.50627024004560039      22.421652116486587
    17   1      4.0493060687846789      1.8786924207752078       22.82466702857208
    18   1      2.0245481623012598      3.0430761137502498      23.721103086819429
    19   1      4.0494159436522885      4.4592443046114871      23.997630982401088
    20   1      2.0246838844426325     0.76467974514341752       25.06555823872614
    21   1      4.0495402906321427      2.2341643122260275       25.18221089095497
    22   1      4.0496539061419394    -0.14008191245338134      26.361935850878272
    23   1      2.0248251149802301      3.1390649436711642      26.478357541258184
    24   1      4.0497801477288586      2.0850903715092506      27.546529840745794
    25   1      2.0249634031070487      0.6688564285626083      27.822895488746759
    26   1      4.0498936949199544      4.2532398399732285      28.719483443850688
    27   1      2.0250654420154413      2.8807725526226555      29.122384916666373
    28   1      4.0499532148287383      1.6558738299401261      29.905003399840432
    29   1      2.0251203247746283     0.31654691955902126      30.382563528788982
    30   1      4.0499894456909651      3.8055527199548322      31.097076508590433
    31   1      2.0251572734241869      2.4844992773607761      31.640046382306657
    32   1      4.0500180146939266      1.2101815228607449       32.29921895979961
    33   1      2.0251862739791378      4.6552362054021481      32.862837661679244
    34   1       4.050043244632576      3.3604111771125913      33.503909579261084
    35   1      2.0252112294049676      2.0588775994074737      34.131949930764151
    36   1      4.0500621505522121     0.76634561105759169       34.71572341911326
    37   1      2.0252274552421108      4.2467414995619723      35.308921221866576
    38   1      4.0500789299224964      2.9182003040910245      35.909497035499832
    39   1      2.0252472647775748      1.6167163224213663      36.649326469529065
    40   1      4.0500945417057963     0.31673778863704871      37.144151642267509
    41   1      2.0252551916849497      3.8237749372734418      37.691793100174991
    42   1      4.0500999623534604      2.5507379015679539      38.239430343801651
