(written by ASE)

42 atoms
1 atom types

0.0      4.0378231517367675  xlo xhi
0.0      4.7347673463626174  ylo yhi
0.0      51.393099723599569  zlo zhi

Atoms # atomic

     1   1       4.037819118381492      4.8269976221636242      13.179576483220044
     2   1      2.0189081352472606      1.4399969797251004      13.723566559443963
     3   1      4.0378190893540067      2.6617135060281889      14.349843528365627
     4   1      2.0189087872473856      3.9871173525183692      14.893098151685278
     5   1      4.0378191536922783     0.52996257542442193      15.571957646477239
     6   1      2.0189094314706546       1.830847817192639      16.158846053543918
     7   1       4.037819667700953      3.1150119555290789      16.761728641230654
     8   1      2.0189100105554578      4.4057123554018727      17.362518510657754
     9   1      4.0378207236653596     0.96563591925003656       17.98476558002379
    10   1      2.0189105763377917      2.2561130902689412      18.600255904213807
    11   1      4.0378221258595248       3.547354253181334       19.18546410776306
    12   1      2.0189111668130693      4.8350225645793943      19.816229180901118
    13   1      4.0378238992396218      1.3995033678555369      20.402939061182717
    14   1      2.0189120300640071      2.6830572665097656      21.057190208084776
    15   1      4.0378253811067273      3.9793834088203459      21.589903461621052
    16   1      2.0189145742589254      0.5260158631680284      22.280298386452227
    17   1      4.0378263242053931      1.8516695639049499      22.805635856869397
    18   1      2.0189136616380994      3.0938824251738395      23.572555800131173
    19   1      4.0378380230974473      4.4807578731489173      23.910928803922999
    20   1      2.0189075050761338     0.87828598290890059      24.880879732022084
    21   1      4.0378119017771867      2.3369403968386893       25.12817376469367
    22   1      4.0376771979199617   -0.030406829549067826      26.264921054508996
    23   1      2.0187591613529041      3.2456877730762752      26.512197061434062
    24   1       4.037650578900938      2.1134069723832187      27.482177098347982
    25   1      2.0187537495414767     0.72652742063814235      27.820539612965703
    26   1      4.0376614135710565      4.2190774681369039      28.587457773829357
    27   1      2.0187529202692343      2.8934131069667588        29.1128060273378
    28   1      4.0376613814522804      1.6120116432418059      29.803201526309007
    29   1      2.0187547371129986     0.31568190094694054       30.33590908623135
    30   1      4.0376621095837244       3.766889688772336      30.990162613747785
    31   1      2.0187542547654518      2.4676334485238924      31.576873352760671
    32   1      4.0376632286877712      1.1799651841131231      32.207643714985842
    33   1       2.018753202639171      4.6234884185860885      32.792841281721515
    34   1      4.0376641763970591      3.3330152092801106      33.408347316377728
    35   1      2.0187522525963435      2.0383210088051928      34.030588687206915
    36   1      4.0376650228576434     0.74763033042324634      34.631388652714335
    37   1      2.0187518572455385      4.1982306498845769      35.234258501162842
    38   1      4.0376654828329013       2.897353349872215      35.821155732722083
    39   1      2.0187521053241078        1.61974967404271      36.500015210550018
    40   1      4.0376654343177716     0.29435441712771754      37.043269212816725
    41   1        2.01875275624151      3.8074075852265601      37.669543919849566
    42   1      4.0376651519665705      2.4596458014938367      38.213544121689189
