(written by ASE)

48 atoms
1 atom types

0.0      4.0378231517367675  xlo xhi
0.0      4.9453031704626795  ylo yhi
0.0      41.962290370253783  zlo zhi

Atoms # atomic

     1   1 -5.6246500540880001e-05     0.28089374928691963      7.6007631998346072
     2   1 -5.6246471240284482e-05      2.7535453539470067      7.6007632320479015
     3   1      2.0188533517121399      1.8135820366548001       8.716067110035004
     4   1      2.0188533517239993      4.2862335128633848      8.7160670605356678
     5   1 -5.4432429265638237e-05      1.0310844330529223      9.9155084157140525
     6   1  -5.443242170130625e-05      3.5037358648371852       9.915508329031482
     7   1      2.0188499637134583      2.6613570267925479      11.057480066577863
     8   1      2.0188499637192008      0.1887056376048431      11.057480178290145
     9   1 -5.7667402408147571e-05      1.8464107189414847      12.236405844143118
    10   1 -5.7667355204473591e-05      4.3190625337974495      12.236405981498773
    11   1      2.0188494937595673      1.0175668328514405      13.395606817927597
    12   1      2.0188494937540811        3.49021863197351      13.395606948228814
    13   1      4.0377625860500741      2.6672565413705178      14.563237561599214
    14   1      4.0377625860847486      5.1399079125225358      14.563237425041731
    15   1      2.0188480622257843       1.844583042776228      15.731087502734468
    16   1      2.0188480622788587      4.3172344171363441      15.731087377484812
    17   1      4.0377615938541274      1.0149229661035251         16.890097690807
    18   1       4.037761593814353      3.4875743631938394      16.890097576327726
    19   1      2.0188494953602669      0.2033599412262897      18.068822580842898
    20   1      2.0188494952991718      2.6760113691140148      18.068822480087672
    21   1 -5.8776561014163579e-05      1.8168723993565354      19.213566152165725
    22   1 -5.8776537914800472e-05      4.2895241278291767      19.213566231301897
    23   1      2.0188531210801233      1.1089395392732702      20.400330068869092
    24   1      2.0188531210238865      3.5815911965812925      20.400330109253929
    25   1 -4.8983406153064646e-05      2.3452766718086666      21.561919876518925
    26   1 -4.8983403044366059e-05      4.8179282610572312      21.561919835567853
    27   1        2.01886425542749     0.58056422044922706      22.748684337792049
    28   1      2.0188642554466312      3.0532157721048638      22.748684340356377
    29   1 -4.5776554808628073e-05       1.439696585120231      23.893425309611988
    30   1 -4.5776557865946936e-05      3.9123481619788496      23.893425331156319
    31   1      2.0188654251935452       4.723907787767641      25.072156955839187
    32   1      2.0188654252139084      2.2512561825595827      25.072156945986677
    33   1      4.0377761832451595     0.60826778878239207       26.23117841737259
    34   1      4.0377761832878685      3.0809193816911402      26.231178397335395
    35   1      2.0188657431253598      1.4309308028319319      27.399029436134075
    36   1      2.0188657431366939        3.90358241607067      27.399029422095026
    37   1 -4.7383909418138204e-05      2.2538987859358577      28.566676231094885
    38   1 -4.7383980800943761e-05      4.7265503948622083      28.566676206277986
    39   1      2.0188620384849205     0.61008373961654416      29.725887406898234
    40   1      2.0188620385354707      3.0827352748019083      29.725887455821198
    41   1 -4.7922025499873697e-05      1.4250458438003684      30.904817946515983
    42   1 -4.7922069100866698e-05      3.8976973437514046      30.904817991653598
    43   1      2.0188591568977201       2.267418532777393      32.046806888085861
    44   1      2.0188591568325593    -0.20523314519397914      32.046806928412359
    45   1 -4.9775053383895832e-05     0.57727319059950499      33.246241147545923
    46   1 -4.9775020235687885e-05      3.0499248420395908      33.246241119058162
    47   1      2.0188587181101449      1.5172154786249765      34.361561632802093
    48   1      2.0188587180667543      3.9898670705628883      34.361561612042451
