(written by ASE)

42 atoms
1 atom types

0.0      4.0528516622206654  xlo xhi
0.0       4.752389837004146  ylo yhi
0.0      51.584381438764311  zlo zhi

Atoms # atomic

     1   1      4.0524135697244388      4.8885707638611731      13.308093196050702
     2   1       2.025989200962083      1.4248374749126496      13.811760663871191
     3   1      4.0524168448882634      2.6724700909620465      14.404191951699731
     4   1      2.0259933471531402       3.996792367381655      14.944798766785167
     5   1      4.0524223601441527      0.5323813762770413       15.64379021119229
     6   1      2.0260002485744426      1.8422970205858016        16.2267307252771
     7   1      4.0524303591103923      3.1270279593367474      16.830298805962524
     8   1      2.0260096747666676      4.4245199445056027      17.435440178717389
     9   1      4.0524416082236474     0.97193018519476315      18.060529851974465
    10   1      2.0260225686051201      2.2665826091691179      18.678878156612214
    11   1      4.0524555406928853      3.5638096548951208      19.261990400019716
    12   1       2.026038373970545      4.8549205753019518      19.904724445376974
    13   1      4.0524729958524164      1.4094395511877595      20.482022752532057
    14   1      2.0260580077217258      2.6926280030661518       21.15047239586967
    15   1       4.052493549357532      4.0054248240601771      21.670670317392851
    16   1       2.026080801235536     0.52426165346414166      22.398417572630446
    17   1      4.0525189334978506      1.8695471440339884      22.875841131662579
    18   1      2.0261214680408739      3.0950414691178536      23.693360518355941
    19   1       4.052536685547067      4.4896927647006653      24.013541771050818
    20   1      2.0262190751922891     0.86656440981289928      25.028273135355484
    21   1      4.0526816868912245      2.3198690326686906      25.211160436834597
    22   1      4.0528612761052605   -0.056362427942570965      26.373207054883423
    23   1      2.0264720636323585      3.2427332169300565      26.556167702822648
    24   1      4.0530054595921037      2.1134371549551862      27.570807403635744
    25   1      2.0265687019727512     0.71880199199784733       27.89105277724034
    26   1      4.0530223864837165      4.2456827521728782      28.708525792338062
    27   1      2.0266086629945166      2.9004152734569626      29.185977078490314
    28   1      4.0530474006324466      1.6291828803346651      29.913693984318325
    29   1       2.026631247622019     0.31639450315374901      30.433923152628815
    30   1      4.0530681324097042      3.7855886893957869      31.102359062204002
    31   1      2.0266512742014053       2.478694338047597      31.679665420260854
    32   1      4.0530862059100805      1.1875772449698987      32.322392049585652
    33   1      2.0266679383461068      4.6427449409093278      32.905516082172262
    34   1      4.0531011669458907      3.3480839295427849      33.523859788103337
    35   1      2.0266820805872627      2.0482847477206185      34.148945075323191
    36   1      4.0531137100453662     0.75078454416163287      34.754078224402647
    37   1      2.0266927324669108       4.218447777546702      35.357663748598355
    38   1      4.0531228751830319      2.9085251273756723      35.940594512935789
    39   1       2.026700769473794      1.6205567733649817      36.639587948476979
    40   1      4.0531293750811166     0.29623154965374615      37.180181801615845
    41   1      2.0267056981484637      3.8009867772350399      37.772630879592931
    42   1      4.0531332661982322      2.5123425741450371      38.276296458102905
