(written by ASE)

48 atoms
1 atom types

0.0      4.0528516622206654  xlo xhi
0.0      4.9637092615049241  ylo yhi
0.0      42.118471237285185  zlo zhi

Atoms # atomic

     1   1 -5.8851105382108187e-05     0.29575322254892722      7.6635276278953777
     2   1 -5.8851175431469159e-05      2.7776077767962839      7.6635274510738958
     3   1      2.0263669060327079      1.8008889798274792      8.7266219648133845
     4   1      2.0263669059490916      4.2827438403895517      8.7266219796306164
     5   1 -6.0732087120155539e-05      1.0438280648534846      9.9397050751464029
     6   1 -6.0732167719110133e-05      3.5256829952919198      9.9397053655487042
     7   1      2.0263672697862112      2.6704379434891927       11.08113223616307
     8   1      2.0263672697550903     0.18858309159937003      11.081132153480924
     9   1 -6.2167784075616367e-05      1.8567987098542653      12.268047019044788
    10   1  -6.216783716631933e-05      4.3386530801665852      12.268046782428717
    11   1      2.0263667796413518      1.0229427072766506      13.429584371915146
    12   1      2.0263667795584555      3.5047971401521942      13.429584255015483
    13   1      4.0527883856216906       2.679742987934548      14.602713341399788
    14   1      4.0527883856756315      5.1615978128431843      14.602713507554174
    15   1      2.0263672072557828      1.8536883609279582      15.774365544468683
    16   1      2.0263672072951446        4.33554315555046       15.77436563691257
    17   1      4.0527903899492976      1.0209963079615447      16.937880060633514
    18   1      4.0527903899410971      3.5028510969723388      16.937880179958022
    19   1      2.0263681469984642     0.20624639272486017      18.121454537703961
    20   1      2.0263681469174877      2.6881011337672978      18.121454580511422
    21   1 -5.8132950615106948e-05      1.8316902774275805      19.268470162444771
    22   1 -5.8132986605306904e-05      4.3135448212650918      19.268470061060626
    23   1      2.0263704827596554      1.0883107917537349      20.471501045155136
    24   1      2.0263704826348796      3.5701653765594101      20.471501021146576
    25   1 -5.2410349282822542e-05      2.3292256160961222      21.646909773806041
    26   1 -5.2410352137014705e-05      4.8110802686057257       21.64690983156493
    27   1      2.0263748246993027     0.59075349395839494      22.849942210163562
    28   1      2.0263748247163789      3.0726081420597895      22.849942218495595
    29   1 -4.9455167028833418e-05       1.447170640360915      23.996961232080146
    30   1 -4.9455152005509159e-05       3.929025294239179      23.996961219627313
    31   1      2.0263766102585472      4.7437903619983226      25.180561123431232
    32   1      2.0263766102200012      2.2619357090375884      25.180561143750939
    33   1      4.0528042356181411      0.6127648739674979      26.344083875724003
    34   1      4.0528042355801652      3.0946194748104849      26.344083893167877
    35   1      2.0263772373428171      1.4388168263272421      27.515749528180752
    36   1      2.0263772373436089      3.9206714274706922      27.515749548366642
    37   1 -4.7556987344876224e-05       2.263852907249587       28.68887673670034
    38   1 -4.7556933495810386e-05      4.7457075164014233      28.688876756417677
    39   1      2.0263776866867524     0.61585758543561009      29.850435781544203
    40   1      2.0263776866765313      3.0977122401277382      29.850435761216868
    41   1 -4.8198803341985288e-05      1.4294956708624831      31.037346713239327
    42   1 -4.8198752280797838e-05      3.9113503323795911      31.037346708656663
    43   1      2.0263773382876189      2.2847445473905106      32.178794007450399
    44   1      2.0263773382787988     -0.1971100509149484      32.178793974708142
    45   1 -4.9139073643283141e-05      0.5599588048366323      33.391882094785245
    46   1 -4.9139094703083129e-05      3.0418134090092925      33.391882093902119
    47   1       2.026377138234277      1.5366854422088407      34.454982386822785
    48   1      2.0263771382488835      4.0185400659605435      34.454982409107288
