(written by ASE)

68 atoms
1 atom types

0.0      6.4081216911529619  xlo xhi
0.0      3.8448728122940445  ylo yhi
0.0      51.584381438764311  zlo zhi

Atoms # atomic

     1   1      4.7976395056015795      4.4445058978042553      10.297917958521312
     2   1   -0.032045622103834312      2.5219664537969027      10.338515307067111
     3   1      1.5461452378018599     0.59942029559981191      10.297146516972088
     4   1      3.1717877287813012      2.5219596078379882       10.27500028678344
     5   1      4.7329242476143536      2.5227973535024155      12.199560389975117
     6   1   -0.031541599109850042     0.59953445499700708      12.228371132368649
     7   1      1.6109248134768026      2.5211144523032898      12.199852090503294
     8   1      3.1712964910337713     0.59950959785062052      12.143788805714157
     9   1       4.669624461249871      4.4517536536874438      14.098910764777239
    10   1      6.3761144801179759        2.52207039387079      14.074117698876389
    11   1       1.674329426418222     0.59211697075918901      14.101336166463685
    12   1      3.1721296847552196      2.5219167888999832      14.228217180084734
    13   1      4.8928521916477639       2.589055764207743      16.125974099858482
    14   1      6.3740632244668216      4.4448830483784727      15.782607777890513
    15   1      1.4517525538062517      2.4546650471643754      16.126356497829857
    16   1      3.1754708950328694     0.59920061209351527      16.210992244320625
    17   1       3.173815411931129      2.5194144025238052      17.879728823421011
    18   1      5.1591624660950188     0.90484949853003704      17.873952634923235
    19   1      1.1910284593273583     0.30218165422118426       17.86571291230408
    20   1      1.1137904514642021      2.1639438217787648      19.282916025362606
    21   1      3.1716509007352083     0.59401770590912129      19.325010066985044
    22   1      5.2257551621391363      2.8920655885742459       19.29645883112218
    23   1      5.2284965796188621       1.022750304825272      20.746634430157251
    24   1       1.104161597304987     0.19646744216756495      20.729609864381001
    25   1      3.1650541791756401      2.5100786114152558      20.764303808796978
    26   1      3.1576372257289824     0.57525377952149859      22.208877719370751
    27   1      5.2306406802197651      2.9917859620384402      22.188178412868172
    28   1      1.0928964313847067      2.0860530114265323      22.167043638462843
    29   1      1.0788131596696982     0.13189899280040759      23.603409569571468
    30   1      3.1445368683654373      2.4749979865470215      23.654288118445766
    31   1      5.2369778353228762      1.1249813291951358      23.629574813309855
    32   1      5.2586937562364984      3.1222647145518101      25.070661347308377
    33   1      1.0596870735941619      2.0171415345509449      25.040778503510062
    34   1      3.1172481822940656     0.51502985060298523      25.100502459163277
    35   1      3.0868213421405968      2.3931693460452101      26.543585998466664
    36   1      5.2959342507187515      1.2880559023409881      26.513672023435781
    37   1      1.0292369849960641    0.050404681104774487      26.483858473804393
    38   1      3.0676624089921254     0.43354625172959083      27.980956343427007
    39   1      1.0019467887478692      1.9353191820857392      27.930076403964858
    40   1      5.3176211574880856      3.2853394569697003      27.954762253259666
    41   1      5.3239502353939852      1.4185359904751556      29.396168271213178
    42   1      3.0535731214765378      2.3242694809513473      29.417322102666105
    43   1     0.98882475110447443  -0.0098079630323925169      29.375488878071192
    44   1     0.98140219695064745      1.9002466686793877      30.820065908735135
    45   1      5.3260752427220934       3.387572288682696      30.837721668516505
    46   1       3.042288539919777     0.36898743799134415      30.854761671181656
    47   1      3.0326450433771708      2.2463917377479947      32.301459750732349
    48   1      0.9747772016506332   -0.028562372079774544      32.259364205383747
    49   1      5.3288050675136249      1.5182612207212558      32.287902527688843
    50   1      5.3953838753115733      3.5054827455956494      33.710420127341195
    51   1      2.9553923853360948     0.26327300982325141      33.718665773998673
    52   1     0.97261071060704352      1.8909105533608419      33.704649950797091
    53   1      7.3790610666665151      3.8111059110966252      35.373403850468598
    54   1      5.6616743055519976      1.8212388365312879       35.45839413049783
    55   1       4.180455999657112      3.8102792274114012      35.801775341007001
    56   1       2.694620628630882      1.9556314294220527      35.458076416807224
    57   1     0.97425231492954911      1.8883530272431017      37.356208601897933
    58   1      5.8848858063363219      3.8033941183266111      37.485495168304269
    59   1      4.1784331708751727      1.8881929519481784      37.510284282398317
    60   1      2.4720777024075753      3.8181491398564038      37.483068470874819
    61   1      0.9751150714171567   -0.034138794721098473      39.440627168266815
    62   1      5.8215954567483044      1.8874473034395296      39.384876016023163
    63   1      4.1779376796227288      3.8107153757592194      39.356046320146575
    64   1      2.5354848527388487      1.8891293040193833      39.384551235138552
    65   1       0.974629120646472      1.8882865965047788      41.309418190363523
    66   1    -0.65123942189914319   -0.034256905970768387      41.286491023805674
    67   1      4.1784298695554147      1.8882839905792685      41.245914220786773
    68   1      2.6002584296685365       3.810829593170125      41.287284004183803
