(written by ASE)

228 atoms
1 atom types

0.0       17.68089656944667  xlo xhi
0.0      22.595747064500298  ylo yhi
0.0      7.0723586277786685  zlo zhi

Atoms # atomic

     1   1      1.5228890940873263      11.461641718648711       1.768097960436674
     2   1     0.12367474972998589       8.456355255211502  8.6180943256397244e-06
     3   1      14.217051708402202      10.297873516321383      1.7680981339247466
     4   1      15.415796247800589      8.9924881640491812  8.4913242358545811e-06
     5   1       12.88982155294015      9.0215506669282561  8.4784299812252102e-06
     6   1      16.843812797266096      10.297873522789011      1.7680981270556657
     7   1      16.478451144566968      13.145563952026396      1.7680980548511387
     8   1     0.12367413992542979      12.139392018007069   8.559046542137898e-06
     9   1      15.415795780940229      11.603258830218653   8.458770019301437e-06
    10   1      1.2071206288259417      13.864211490136105      1.7680980615302742
    11   1     0.92753097820664965      16.373358373585177       1.768098057785231
    12   1      17.510410782842452      14.794157120650793  8.4186530350525689e-06
    13   1      8.9641230559334293      8.4563552592242885      1.7680982364696896
    14   1      11.630712616321571      10.297873564447393      1.7680981984286757
    15   1      11.470937200995252      12.794979425359596      1.7680981217587681
    16   1      12.889821057366998       11.57419638258693  8.4404866432930902e-06
    17   1      10.363337393610578      11.461641701809942   8.352335296492308e-06
    18   1      14.006910474667535      12.901171818350949        1.76809809911987
    19   1      13.682947580434423       15.51535156557328       1.768098067884631
    20   1      15.086683929874157      14.308221957830071  8.4307769928047882e-06
    21   1      12.588088048859722      14.137322712554331  8.4162987464830287e-06
    22   1      16.150698585454968      15.844378576277935      1.7680980648263753
    23   1      15.841822744819485      18.484844281674064      1.7680980463090232
    24   1      17.222690422025668      17.395003896716172  8.3915828061196806e-06
    25   1      14.770131609828434      16.964292761917257  8.3987220060680847e-06
    26   1     0.61629380327427752       18.94091535137138      1.7680980417790444
    27   1      1.6970317793218062      20.331861114970852  8.3807406868251055e-06
    28   1      16.895769489978328      19.919497320290777  8.3833006255018356e-06
    29   1       4.049373263133079       9.021550669361055      1.7680981289553765
    30   1      6.5753479574066631       8.992488166270455      1.7680981492959742
    31   1      6.5753475020338463      11.603258832436033       1.768098116739099
    32   1      8.0033645125885915      10.297873522758596  8.4714116705861859e-06
    33   1      5.3766034237196312      10.297873514802911  8.4753112276116884e-06
    34   1      8.9641224027905757      12.139392022150957      1.7680981777077278
    35   1      8.6699625063592212      14.794157117017331      1.7680980747661097
    36   1      10.047568904486932      13.864211507654797  8.4101477582329535e-06
    37   1      7.6380028685115979      13.145563948584023  8.4107934093480112e-06
    38   1      11.168846175742043      15.297020382525643      1.7680980645681557
    39   1      10.869872906780115      17.826392941882499      1.7680980462079587
    40   1      12.279049011480716      16.703901915470169  8.3986256290479743e-06
    41   1      9.7679792638069056      16.373358368403149  8.4003968859845848e-06
    42   1      13.384581832212691      18.125124987730395      1.7680980476227584
    43   1      13.018273052343709      20.595747064436946      1.7680980386140761
    44   1      14.440605030378348      19.575635214469877  8.3850334897839002e-06
    45   1      11.944303732724745      19.279654818855889  8.3839838749483053e-06
    46   1      2.7902643317713136      10.297873548613975  8.5752610045557928e-06
    47   1      4.0493727778035939       11.57419638505894      1.7680980911531419
    48   1      3.7476397637834427      14.137322711556992      1.7680980705953886
    49   1      5.1664621876737629      12.901171817681691  8.4424909168891742e-06
    50   1      2.6304889089109644      12.794979430780685  8.4794538311849291e-06
    51   1      6.2462356419535672      14.308221958650233      1.7680980862157327
    52   1      5.9296833253464039      16.964292761551523      1.7680980559356043
    53   1      7.3102502985150437      15.844378577452652  8.4080422471571935e-06
    54   1      4.8424992962822406      15.515351565549652  8.4112274767303857e-06
    55   1      8.3822421371587019      17.395003897424719      1.7680980496172203
    56   1      8.0553212051874432      19.919497319983108      1.7680980408242415
    57   1       9.456742088255444      18.940915351706821  8.3852482586675299e-06
    58   1      7.0013744599351941      18.484844281639379  8.3894922171065414e-06
    59   1      10.537480064184921      20.331861114585259      1.7680980382316669
    60   1      2.3283978938338077      15.297020382936296  8.4070997356490906e-06
    61   1      3.4386007259888123      16.703901915910947      1.7680980555236958
    62   1      3.1038554480851879      19.279654818899647      1.7680980406300044
    63   1       4.544133547382275      18.125124987869508  8.3904537940024762e-06
    64   1       2.029424622093142      17.826392941292216  8.3884652838481796e-06
    65   1      5.6001567457863368      19.575635214410568      1.7680980420523396
    66   1      4.1778247675315283      20.595747064500276  8.3814363553292906e-06
    67   1        1.52288963691475      9.1341053259874521      1.7680980140292781
    68   1      10.363337907160322      9.1341053105565599  8.4066232483312083e-06
    69   1      17.510412172386985      5.8015899376000686  8.5323657802443053e-06
    70   1      16.478452154070727      7.4501831334258783      1.7680981278560004
    71   1      16.895771663823741     0.67624967519913159   8.552301341842032e-06
    72   1      17.222692368262916      3.2007431085562019  8.5431463694771408e-06
    73   1      14.770133515852129      3.6314543010378726  8.5404790888525566e-06
    74   1      16.150700267742533      4.7513684589287335      1.7680981912769835
    75   1      15.841824837044904      2.1109027307273367      1.7680982064105217
    76   1      15.086685239583742      6.2875250983626012  8.5247120171365245e-06
    77   1      12.588089262831364      6.4584243556061187  8.5177552632710031e-06
    78   1      14.006911366647708      7.6945752152374496      1.7680981657740038
    79   1      13.682949177145769      5.0803954996788461      1.7680981891839223
    80   1      2.6304897261822262      7.8007676375134194  8.5567468001972986e-06
    81   1      14.440607199444957      1.0201118547941306  8.5518792603170105e-06
    82   1       11.94430588960347      1.3160922342471553  8.5535298286453711e-06
    83   1      13.384583891893444       2.470622088660102      1.7680982048840859
    84   1       13.01827527734585                       0      1.7680982117964694
    85   1      12.279050848300052      3.8918451492566488   8.543030469563141e-06
    86   1      9.7679810233799476      4.2223886289348593  8.5439681025299118e-06
    87   1      11.168847679314732      5.2987266687515442      1.7680981918680687
    88   1      10.869874915648248      2.7693540917140678      1.7680982051809668
    89   1      10.047570022147259      6.7315355363314442  8.5142683078449665e-06
    90   1      7.6380038608202874      7.4501831299965966  8.4841531996383395e-06
    91   1      8.6699638795348299      5.8015899339926911      1.7680981887743379
    92   1      10.537482272501704     0.26388591156135988      1.7680982123905262
    93   1      9.4567442127485268      1.6548316476124849  8.5530242021902288e-06
    94   1      7.0013765524785612      2.1109027307936126  8.5496962837239513e-06
    95   1      8.3822440837245491      3.2007431093091152      1.7680982015671469
    96   1      8.0553233791614716     0.67624967501166999      1.7680982102486127
    97   1      7.3102519852394092      4.7513684601284689  8.5346477751323283e-06
    98   1      4.8425008918451864      5.0803954997151672  8.5322061637838534e-06
    99   1      6.2462369580630286      6.2875250991894056      1.7680981800674407
   100   1      5.9296852308729218       3.631454300757563      1.7680981975377992
   101   1        5.16646308419927      7.6945752146075366  8.5089990541943182e-06
   102   1      11.470938003734638      7.8007676319342067      1.7680981991988021
   103   1      3.7476409784719014      6.4584243546658264      1.7680981716276425
   104   1      4.1778269926838991  1.9846080334660513e-10  8.5540040916849222e-06
   105   1      5.6001589145596107      1.0201118548785164      1.7680982085554975
   106   1      4.5441356072330565      2.4706220889223545   8.547249558364223e-06
   107   1      2.0294266308212845      2.7693540911739016  8.5467938107324559e-06
   108   1      3.4386025642897531      3.8918451497697744      1.7680981993781621
   109   1      3.1038576047432018      1.3160922343857564      1.7680982095040316
   110   1      2.3283993917612467      5.2987266691585333  8.5338838971484494e-06
   111   1      1.2071217284810161      6.7315355193699924       1.768098165146438
   112   1     0.92753273946783243      4.2223886340481593      1.7680982008449075
   113   1      1.6970339879045528     0.26388591194819266  8.5541659064986102e-06
   114   1     0.61629592824119372       1.654831647245631      1.7680982089620254
   115   1      1.5228890940873181      11.461641718648702      5.3042772743254876
   116   1     0.12367474972963075      8.4563552552108021      3.5361879319836556
   117   1      14.217051708402137      10.297873516321383      5.3042774478140968
   118   1      15.415796247800486      8.9924881640490923      3.5361878052136007
   119   1      12.889821552940141      9.0215506669282526      3.5361877923194265
   120   1        16.8438127972661      10.297873522789018      5.3042774409444249
   121   1      16.478451144566975       13.14556395202642      5.3042773687408475
   122   1     0.12367413992507405      12.139392018007751      3.5361878729358693
   123   1      15.415795780940128      11.603258830218738      3.5361877726593796
   124   1      1.2071206288259304       13.86421149013611      5.3042773754196473
   125   1     0.92753097820665797      16.373358373585177      5.3042773716745746
   126   1      17.510410782842452      14.794157120650834      3.5361877325423499
   127   1      8.9641230559336265      8.4563552592246864      5.3042775503590427
   128   1      11.630712616321123      10.297873564447396      5.3042775123180084
   129   1      11.470937200995198       12.79497942535955      5.3042774356481006
   130   1       12.88982105736698      11.574196382586941      3.5361877543760887
   131   1      10.363337393610593      11.461641701809917      3.5361876662243197
   132   1      14.006910474667546      12.901171818350992      5.3042774130092454
   133   1      13.682947580434437      15.515351565573287      5.3042773817739324
   134   1      15.086683929874265      14.308221957829934      3.5361877446663068
   135   1      12.588088048859767      14.137322712554324      3.5361877301881011
   136   1      16.150698585454968      15.844378576277935      5.3042773787157458
   137   1      15.841822744819479      18.484844281674061      5.3042773601983466
   138   1      17.222690422025664      17.395003896716165      3.5361877054721411
   139   1      14.770131609828441      16.964292761917228      3.5361877126113375
   140   1      0.6162938032742773      18.940915351371363      5.3042773556683764
   141   1      1.6970317793218066      20.331861114970863      3.5361876946300455
   142   1      16.895769489978338      19.919497320290791      3.5361876971899693
   143   1      4.0493732631330843       9.021550669361055      5.3042774428449073
   144   1      6.5753479574067208      8.9924881662705047      5.3042774631853566
   145   1      6.5753475020339005      11.603258832435975      5.3042774306284883
   146   1      8.0033645125885897      10.297873522758593      3.5361877853006702
   147   1      5.3766034237197537      10.297873514802909      3.5361877892005724
   148   1      8.9641224027907835      12.139392022150551      5.3042774915970563
   149   1      8.6699625063592229      14.794157117017322      5.3042773886554206
   150   1      10.047568904486944       13.86421150765479      3.5361877240371213
   151   1      7.6380028685115811      13.145563948584005      3.5361877246829732
   152   1      11.168846175742045      15.297020382525661      5.3042773784574768
   153   1      10.869872906780108      17.826392941882503      5.3042773600973003
   154   1      12.279049011480724      16.703901915470176      3.5361877125149599
   155   1      9.7679792638068967      16.373358368403171      3.5361877142862199
   156   1      13.384581832212691      18.125124987730384      5.3042773615120655
   157   1      13.018273052343696      20.595747064436935      5.3042773525034219
   158   1      14.440605030378345      19.575635214469877      3.5361876989228289
   159   1      11.944303732724741      19.279654818855914      3.5361876978732121
   160   1      2.7902643317720939      10.297873548613968      3.5361878891503484
   161   1      4.0493727778035957      11.574196385058933      5.3042774050426882
   162   1      3.7476397637834244      14.137322711557008      5.3042773844847595
   163   1      5.1664621876737273      12.901171817681586      3.5361877563802837
   164   1      2.6304889089110599      12.794979430780778      3.5361877933431636
   165   1      6.2462356419535023      14.308221958650318       5.304277400105029
   166   1      5.9296833253463896      16.964292761551537      5.3042773698249341
   167   1      7.3102502985150375      15.844378577452652      3.5361877219315914
   168   1      4.8424992962822264      15.515351565549651      3.5361877251167826
   169   1      8.3822421371587019      17.395003897424708      5.3042773635065679
   170   1      8.0553212051874379      19.919497319983101      5.3042773547135749
   171   1      9.4567420882554476      18.940915351706831       3.536187699137586
   172   1      7.0013744599352021      18.484844281639379      3.5361877033815561
   173   1      10.537480064184914      20.331861114585259      5.3042773521210265
   174   1      2.3283978938337975      15.297020382936307       3.536187720989056
   175   1      3.4386007259888136      16.703901915910947      5.3042773694130352
   176   1      3.1038554480851928      19.279654818899655      5.3042773545193223
   177   1      4.5441335473822795      18.125124987869505      3.5361877043431211
   178   1       2.029424622093134      17.826392941292212      3.5361877023546131
   179   1      5.6001567457863342      19.575635214410561      5.3042773559416618
   180   1      4.1778247675315283      20.595747064500298      3.5361876953256912
   181   1      1.5228896369147547      9.1341053259874592      5.3042773279180704
   182   1       10.36333790716032      9.1341053105565599      3.5361877205122725
   183   1      17.510412172386978      5.8015899376000082      3.5361878462551171
   184   1       16.47845215407073      7.4501831334258632      5.3042774417457226
   185   1      16.895771663823766     0.67624967519912982      3.5361878661906712
   186   1      17.222692368262923      3.2007431085562046       3.536187857035705
   187   1      14.770133515852148      3.6314543010378921      3.5361878543684142
   188   1      16.150700267742515      4.7513684589287335      5.3042775051663389
   189   1      15.841824837044891      2.1109027307273394      5.3042775202998484
   190   1       15.08668523958386      6.2875250983627211      3.5361878386013368
   191   1      12.588089262831396        6.45842435560614       3.536187831644626
   192   1      14.006911366647723       7.694575215237399      5.3042774796633703
   193   1      13.682949177145785      5.0803954996788265      5.3042775030732114
   194   1      2.6304897261823212       7.800767637513343      3.5361878706361325
   195   1      14.440607199444965      1.0201118547941306       3.536187865768595
   196   1      11.944305889603482      1.3160922342471464      3.5361878674191618
   197   1      13.384583891893445       2.470622088660102      5.3042775187734037
   198   1      13.018275277345845  5.3290705295733425e-15      5.3042775256858041
   199   1       12.27905084830005      3.8918451492566257      3.5361878569198026
   200   1      9.7679810233799476      4.2223886289348558      3.5361878578574446
   201   1      11.168847679314734      5.2987266687515406      5.3042775057573861
   202   1      10.869874915648248      2.7693540917140678      5.3042775190703004
   203   1      10.047570022147255      6.7315355363314415      3.5361878281576802
   204   1      7.6380038608202732       7.450183129996625      3.5361877980427536
   205   1      8.6699638795348264      5.8015899339927284      5.3042775026636644
   206   1      10.537482272501713      0.2638859115613581      5.3042775262798596
   207   1       9.456744212748518      1.6548316476124805      3.5361878669135396
   208   1      7.0013765524785585      2.1109027307936001      3.5361878635856181
   209   1      8.3822440837245455      3.2007431093091139       5.304277515456481
   210   1      8.0553233791614645     0.67624967501166644      5.3042775241379596
   211   1      7.3102519852394048      4.7513684601284618      3.5361878485371183
   212   1      4.8425008918451642      5.0803954997151903      3.5361878460954723
   213   1      6.2462369580629584      6.2875250991893479      5.3042774939567332
   214   1      5.9296852308729129      3.6314543007575617      5.3042775114271201
   215   1      5.1664630841992416      7.6945752146076201      3.5361878228884049
   216   1      11.470938003734592      7.8007676319342529      5.3042775130881372
   217   1      3.7476409784718876      6.4584243546658229      5.3042774855170212
   218   1      4.1778269926838991   1.984590269898616e-10      3.5361878678934215
   219   1      5.6001589145596027      1.0201118548785164      5.3042775224448313
   220   1      4.5441356072330548      2.4706220889223527      3.5361878611388899
   221   1      2.0294266308212823      2.7693540911739056      3.5361878606831487
   222   1      3.4386025642897531      3.8918451497697726       5.304277513267496
   223   1      3.1038576047432027      1.3160922343857546       5.304277523393365
   224   1      2.3283993917612422      5.2987266691585253      3.5361878477732223
   225   1      1.2071217284810176      6.7315355193699933      5.3042774790358305
   226   1     0.92753273946783232      4.2223886340481593      5.3042775147342613
   227   1      1.6970339879045588      0.2638859119481971      3.5361878680552397
   228   1     0.61629592824119184      1.6548316472456301      5.3042775228513674
