(written by ASE)

276 atoms
1 atom types

0.0      21.506762889276093  xlo xhi
0.0      22.617618874237426  ylo yhi
0.0      7.0723586277786685  zlo zhi

Atoms # atomic

     1   1       9.152848769021265      12.131421148128986      1.7680896541689264
     2   1      9.8501965118176358      15.607808047767319      1.7680896541660749
     3   1      9.4916260616038617      13.853435182130479      3.5361793111122246
     4   1      10.504607258097471      19.203634626882668      1.7680896541641018
     5   1      10.199906064100929      17.409105863309019      3.5361793111094943
     6   1      5.7309537759317806      12.293870319539712      1.7680896541686806
     7   1      7.3983898461872979      12.205900880097872      3.5361793111135218
     8   1      7.7117381028682201      14.105172048199401      1.7680896541669708
     9   1      6.3683887173634623      16.230394944749545      1.7680896541652544
    10   1      8.0856304913303561      15.934412323367839      3.5361793111102169
    11   1      6.0488900884637324      14.325188215302102      3.5361793111113262
    12   1      8.4435863289566768      17.755842062650174      1.7680896541645097
    13   1      7.0251269558048604      19.841134052915155      1.7680896541638484
    14   1       8.776182635731459      19.508692067330948      3.5361793111086959
    15   1      6.7041234656177986      18.086931983247364      3.5361793111089033
    16   1      2.4781720188804517      13.081954937618407      1.7680896541679614
    17   1      4.1718568563381391       12.59897965547156      3.5361793111129294
    18   1      2.0854444289345042      11.473204970529252      3.5361793111138122
    19   1       4.418966831284159      14.588174554526542      1.7680896541665978
    20   1       2.953337115246021      16.761042239039277      1.7680896541650766
    21   1      4.6713578867215881      16.493051718980173      3.5361793111097701
    22   1        2.70456960412564       14.89950975528032       3.536179311111213
    23   1      4.9716088263862153      18.374106349602236      1.7680896541640703
    24   1      3.4828555183717884      20.401362512569889      1.7680896541636144
    25   1      5.2560745277751746      20.134935972151876      3.5361793111083544
    26   1      3.2347407058158266      18.624282656207278       3.536179311108687
    27   1     0.29392479933044946      11.871617242462399      1.7680896541674447
    28   1      20.245007506242143      13.853435182130417      1.7680896541675044
    29   1     0.58285682714291254      13.530258408164885      3.5361793111132562
    30   1        19.9062302136639         12.131421148123      3.5361793111140627
    31   1     0.91027632012903847      15.250434233717158       1.768089654166453
    32   1      20.953287508738999      17.409105863307811      1.7680896541648476
    33   1      1.2051246843954291      17.052729084183369      3.5361793111097457
    34   1      20.603577956455862      15.607808047766239      3.5361793111107271
    35   1      1.4738408923043589      18.899886436448583      1.7680896541640216
    36   1      1.7651379914964793      20.617618874237053      3.5361793111082869
    37   1      21.257988702735304      19.203634626881673      3.5361793111087776
    38   1      18.151771290823863       12.20590088009749      1.7680896541688309
    39   1      16.802271533102861      14.325188215301646      1.7680896541667277
    40   1      18.465119547504496      14.105172048200355       3.536179311111582
    41   1       16.48433522057131      12.293870319539057      3.5361793111132909
    42   1      18.839011935968532      15.934412323366489      1.7680896541656046
    43   1      17.457504910256066      18.086931983246526      1.7680896541642643
    44   1       19.19696777359491      17.755842062648959      3.5361793111091897
    45   1      17.121770162001827       16.23039494474839      3.5361793111099269
    46   1      19.529564080369735      19.508692067329921      1.7680896541640421
    47   1      17.778508400443528      19.841134052914324      3.5361793111085427
    48   1      12.838825873577365      11.473204970532421      1.7680896541687807
    49   1      14.925238300972259      12.598979655470686      1.7680896541683917
    50   1      13.457951048763592      14.899509755280677      1.7680896541665601
    51   1      15.172348275922108      14.588174554526653       3.536179311111225
    52   1        13.2315534635178      13.081954937617784       3.536179311112746
    53   1      15.424739331359758      16.493051718979999      1.7680896541651414
    54   1      13.988122150454345      18.624282656207324      1.7680896541640483
    55   1      15.724990271024668      18.374106349601853      3.5361793111087612
    56   1      13.706718559884102      16.761042239039547      3.5361793111097519
    57   1      16.009455972414088      20.134935972151407      1.7680896541637297
    58   1      14.236236963010732      20.401362512569854      3.5361793111082971
    59   1      11.047306243970027      11.871617242468778      3.5361793111150472
    60   1        11.3362382717805      13.530258408164729      1.7680896541678059
    61   1      11.663657764766878      15.250434233718149      3.5361793111112361
    62   1      11.958506129033504      17.052729084184204      1.7680896541650792
    63   1      12.227222336942805       18.89988643644913       3.536179311108699
    64   1      12.518519436135389      20.617618874237426      1.7680896541636228
    65   1      18.042527147266384      10.308809437118306      3.5361793111160105
    66   1      21.485378023497425      10.308809437124928       3.536179311119255
    67   1      10.731996578859333      10.308809437111337      1.7680896541699711
    68   1      19.779467118657376      10.308809437119372      1.7680896541700664
    69   1      5.5171982089275549      10.308809437118953      3.5361793111158364
    70   1      7.2891457026286153      10.308809437119141      1.7680896541711111
    71   1      9.0260856740196207      10.308809437118034      3.5361793111162543
    72   1      3.6976216772208601      10.308809437119093       1.768089654171179
    73   1      14.451003121858825       10.30880943711912      3.5361793111158599
    74   1      21.257988702747056      1.4139842473553648      3.5361793111226714
    75   1      20.603577956464786      5.0098108264710461       3.536179311120816
    76   1      20.953287508749742      3.2085130109292583       1.768089654177351
    77   1      19.906230213663704      8.4861977261099497      3.5361793111182713
    78   1      20.245007506248754      6.7641836921077845      1.7680896541747146
    79   1      17.778508400454946     0.77648482132269958      3.5361793111229352
    80   1      19.529564080381299      1.1089268069072189      1.7680896541780982
    81   1      19.196967773605635      2.8617768115880202      3.5361793111223072
    82   1      17.121770162010481       4.387223929487976      3.5361793111216091
    83   1      18.839011935977506      4.6832065508701106      1.7680896541766906
    84   1      17.457504910266834      2.5306868909903981      1.7680896541778974
    85   1      18.465119547512526      6.5124468260375412      3.5361793111199376
    86   1      16.484335220573026      8.3237485546967847      3.5361793111183339
    87   1      18.151771290828577      8.4117179941392628       1.768089654173445
    88   1      16.802271533108151      6.2924306589350847      1.7680896541756181
    89   1      14.236236963021776     0.21625636166723264       3.536179311123163
    90   1      16.009455972425318     0.48268290208552506      1.7680896541784059
    91   1      15.724990271035393       2.243512524634987      3.5361793111227318
    92   1      13.706718559893663      3.8565766351978281      3.5361793111218085
    93   1      15.424739331368675      4.1245671552570053      1.7680896541770836
    94   1      13.988122150465092      1.9933362180296879      1.7680896541781181
    95   1      15.172348275928449      6.0294443197109198      3.5361793111203599
    96   1      13.231553463523994      7.5356639366199341      3.5361793111189739
    97   1      14.925238300980423       8.018639218765685      1.7680896541740612
    98   1      13.457951048771152      5.7181091189573916      1.7680896541757147
    99   1      12.838825873574866       9.144413903710582      1.7680896541734179
   100   1      1.2051246844056802      3.5648897900538836      3.5361793111217965
   101   1     0.58285682714872811      7.0873604660741876      3.5361793111194615
   102   1      12.518519436146294                       0      1.7680896541785056
   103   1      12.227222336953682      1.7177324377883763      3.5361793111227939
   104   1       10.19990606411179      3.2085130109299076      3.5361793111220305
   105   1      11.958506129043752      3.5648897900539209      1.7680896541771465
   106   1      10.504607258108663      1.4139842473557069      1.7680896541780569
   107   1      11.663657764775779      5.3671846405209171      3.5361793111204358
   108   1      9.4916260616113313       6.764183692107566      3.5361793111194491
   109   1      11.336238271787488      7.0873604660735756      1.7680896541740343
   110   1      9.8501965118272032      5.0098108264717505      1.7680896541761877
   111   1      11.047306243972127      8.7460016317783413      3.5361793111182132
   112   1      9.1528487690308307      8.4861977261159431       1.768089654173155
   113   1      8.7761826357431669      1.1089268069080245      3.5361793111227806
   114   1      6.7041234656289852      2.5306868909914844      3.5361793111225781
   115   1      8.4435863289678341      2.8617768115890612      1.7680896541776678
   116   1      7.0251269558171376     0.77648482132370511       1.768089654178272
   117   1      8.0856304913398809      4.6832065508713692      3.5361793111213302
   118   1      6.0488900884713699      6.2924306589358485      3.5361793111202293
   119   1      7.7117381028731327      6.5124468260365456      1.7680896541753606
   120   1      6.3683887173729312      4.3872239294894841      1.7680896541769644
   121   1      7.3983898461896054      8.4117179941396749      3.5361793111181266
   122   1      5.7309537759366398      8.3237485546975307      1.7680896541737345
   123   1      5.2560745277878205     0.48268290208651449      3.5361793111230853
   124   1      3.2347407058274711      1.9933362180304446      3.5361793111227775
   125   1      4.9716088263976479      2.2435125246359835      1.7680896541780613
   126   1       3.482855518384512     0.21625636166796716      1.7680896541784821
   127   1       4.671357886730835      4.1245671552578571       3.536179311121745
   128   1      2.7045696041330478      5.7181091189576367      3.5361793111203652
   129   1      4.4189668312906756      6.0294443197112662      1.7680896541757372
   130   1      2.9533371152556755      3.8565766351983348      1.7680896541771312
   131   1      4.1718568563389766      8.0186392187669249      3.5361793111186608
   132   1      2.0854444289411935       9.144413903707644      3.5361793111184658
   133   1      2.4781720188850804      7.5356639366211278      1.7680896541741993
   134   1     0.91027632013739934      5.3671846405204304      1.7680896541756321
   135   1     0.29392479933563298      8.7460016317722147      1.7680896541706306
   136   1       1.765137991509131  3.5083047589255681e-13      3.5361793111231172
   137   1      1.4738408923160597      1.7177324377886676      1.7680896541780915
   138   1      16.270579653565335      10.308809437118267      1.7680896541711693
   139   1      9.1528487690212543      12.131421148128961      5.3042689680582757
   140   1      9.8501965118176358      15.607808047767314      5.3042689680554096
   141   1      9.4916260616038777      13.853435182130461 -2.7771203786030996e-09
   142   1      10.504607258097478      19.203634626882668      5.3042689680534636
   143   1      10.199906064100924      17.409105863309026 -2.7798374729164361e-09
   144   1      5.7309537759317859      12.293870319539712       5.304268968058012
   145   1      7.3983898461872872      12.205900880097872 -2.7758017299647434e-09
   146   1      7.7117381028682122      14.105172048199412      5.3042689680563111
   147   1       6.368388717363465      16.230394944749545      5.3042689680545951
   148   1      8.0856304913303507      15.934412323367839 -2.7791224956249336e-09
   149   1      6.0488900884637253      14.325188215302102 -2.7779976579158411e-09
   150   1      8.4435863289566679      17.755842062650192      5.3042689680538428
   151   1      7.0251269558048444      19.841134052915159      5.3042689680531669
   152   1      8.7761826357314341      19.508692067330951 -2.7806476488073863e-09
   153   1       6.704123465617795      18.086931983247364 -2.7804332162774312e-09
   154   1      2.4781720188804495      13.081954937618438      5.3042689680573085
   155   1      4.1718568563381391      12.598979655471565  -2.776409041245527e-09
   156   1      2.0854444289345162       11.47320497052924 -2.7755661479223549e-09
   157   1      4.4189668312841697      14.588174554526535      5.3042689680559301
   158   1       2.953337115246021      16.761042239039263      5.3042689680544024
   159   1      4.6713578867215881      16.493051718980187 -2.7795588294101423e-09
   160   1      2.7045696041256453      14.899509755280338 -2.7781059188497645e-09
   161   1      4.9716088263862153      18.374106349602247      5.3042689680534014
   162   1      3.4828555183717911      20.401362512569889      5.3042689680529449
   163   1      5.2560745277751728      20.134935972151894 -2.7809789381863369e-09
   164   1      3.2347407058158351      18.624282656207278 -2.7806576395312591e-09
   165   1     0.29392479933041415      11.871617242462509      5.3042689680567872
   166   1      20.245007506242125      13.853435182130436      5.3042689680568369
   167   1      0.5828568271429182      13.530258408164894  -2.776010858530102e-09
   168   1      19.906230213663935      12.131421148123009 -2.7752617386962125e-09
   169   1     0.91027632012903326      15.250434233717105      5.3042689680557791
   170   1      20.953287508739002      17.409105863307779      5.3042689680541804
   171   1      1.2051246843954326      17.052729084183348 -2.7796036996312972e-09
   172   1      20.603577956455865      15.607808047766245 -2.7785914356153983e-09
   173   1      1.4738408923043476      18.899886436448583      5.3042689680533606
   174   1      1.7651379914964811      20.617618874237053 -2.7810425751473243e-09
   175   1      21.257988702735283      19.203634626881676 -2.7805423967563869e-09
   176   1      18.151771290823884      12.205900880097492      5.3042689680582278
   177   1      16.802271533102839      14.325188215301623      5.3042689680560828
   178   1      18.465119547504507      14.105172048200373 -2.7777552889967168e-09
   179   1      16.484335220571189      12.293870319539064 -2.7760625430964958e-09
   180   1      18.839011935968529      15.934412323366491      5.3042689680549335
   181   1      17.457504910256059      18.086931983246533      5.3042689680535995
   182   1      19.196967773594885      17.755842062648941 -2.7801528725584733e-09
   183   1      17.121770162001816       16.23039494474839 -2.7794097060229749e-09
   184   1      19.529564080369749      19.508692067329907      5.3042689680533766
   185   1      17.778508400443506      19.841134052914342 -2.7808093840265165e-09
   186   1      12.838825873577356      11.473204970532414      5.3042689680580546
   187   1      14.925238300972252      12.598979655470661      5.3042689680576149
   188   1      13.457951048763599      14.899509755280683       5.304268968055907
   189   1      15.172348275922101       14.58817455452667 -2.7781094460771004e-09
   190   1      13.231553463517871      13.081954937617722 -2.7765934089824569e-09
   191   1       15.42473933135976      16.493051718980009      5.3042689680544646
   192   1      13.988122150454345      18.624282656207331      5.3042689680533579
   193   1      15.724990271024662       18.37410634960186 -2.7805710405956384e-09
   194   1      13.706718559884111      16.761042239039565 -2.7795841728674479e-09
   195   1      16.009455972414084      20.134935972151421      5.3042689680530302
   196   1      14.236236963010759      20.401362512569836 -2.7810274464522545e-09
   197   1      11.047306243970089      11.871617242468677 -2.7743054780980564e-09
   198   1      11.336238271780497      13.530258408164732      5.3042689680572153
   199   1      11.663657764766892      15.250434233718176 -2.7780953220221294e-09
   200   1      11.958506129033507      17.052729084184204      5.3042689680543909
   201   1      12.227222336942825      18.899886436449087 -2.7806294713211043e-09
   202   1      12.518519436135385      20.617618874237415      5.3042689680530017
   203   1      18.042527147266362      10.308809437118313 -2.7733053964184924e-09
   204   1      21.485378023497436      10.308809437124916 -2.7701765919807071e-09
   205   1      10.731996578859324       10.30880943711132      5.3042689680592305
   206   1      19.779467118657365      10.308809437119372      5.3042689680594215
   207   1      5.5171982089275415      10.308809437118951 -2.7734748518952468e-09
   208   1       7.289145702628602      10.308809437119141      5.3042689680604562
   209   1      9.0260856740196385      10.308809437118034  -2.773078400877259e-09
   210   1      3.6976216772209063       10.30880943711912       5.304268968060498
   211   1      14.451003121858772      10.308809437119139 -2.7734791609847616e-09
   212   1       21.25798870274706      1.4139842473553632   -2.76664798112979e-09
   213   1      20.603577956464786      5.0098108264710435 -2.7685115253212158e-09
   214   1      20.953287508749749      3.2085130109292579      5.3042689680666779
   215   1      19.906230213663708      8.4861977261099479 -2.7710464580154748e-09
   216   1      20.245007506248729      6.7641836921077649      5.3042689680640454
   217   1       17.77850840045496     0.77648482132269614 -2.7663991783367862e-09
   218   1      19.529564080381299      1.1089268069072162      5.3042689680674249
   219   1      19.196967773605653      2.8617768115880273 -2.7670352308838425e-09
   220   1      17.121770162010513      4.3872239294879654 -2.7677299692489328e-09
   221   1      18.839011935977521       4.683206550870108        5.30426896806601
   222   1      17.457504910266817      2.5306868909903919       5.304268968067241
   223   1      18.465119547512529      6.5124468260375341 -2.7693857794408105e-09
   224   1      16.484335220573001      8.3237485546967811 -2.7710054069546158e-09
   225   1      18.151771290828584      8.4117179941392592      5.3042689680628028
   226   1      16.802271533108154      6.2924306589350838      5.3042689680649575
   227   1      14.236236963021751     0.21625636166723083 -2.7661723076397844e-09
   228   1      16.009455972425314     0.48268290208551523      5.3042689680677571
   229   1      15.724990271035388      2.2435125246349816 -2.7666008837273624e-09
   230   1      13.706718559893648      3.8565766351978126 -2.7675363343720893e-09
   231   1      15.424739331368679      4.1245671552570107       5.304268968066431
   232   1      13.988122150465113       1.993336218029687      5.3042689680674595
   233   1      15.172348275928439      6.0294443197109198 -2.7689798447385002e-09
   234   1      13.231553463524008      7.5356639366199589 -2.7703504164202657e-09
   235   1      14.925238300980421      8.0186392187656921      5.3042689680633766
   236   1      13.457951048771147      5.7181091189574067      5.3042689680650659
   237   1      12.838825873574859      9.1444139037105785      5.3042689680627122
   238   1      1.2051246844056789      3.5648897900538858 -2.7675413654972943e-09
   239   1     0.58285682714873155      7.0873604660741938 -2.7698123765606006e-09
   240   1      12.518519436146292  1.7763567694843953e-15      5.3042689680678157
   241   1      12.227222336953661      1.7177324377883583 -2.7665533334666501e-09
   242   1      10.199906064111799      3.2085130109299005  -2.767303443946969e-09
   243   1      11.958506129043752      3.5648897900539196       5.304268968066471
   244   1      10.504607258108653      1.4139842473556952      5.3042689680673618
   245   1      11.663657764775778      5.3671846405208923 -2.7688960988778809e-09
   246   1      9.4916260616113384      6.7641836921075775 -2.7698844924616327e-09
   247   1      11.336238271787478      7.0873604660735801      5.3042689680634103
   248   1      9.8501965118272068      5.0098108264717469      5.3042689680655251
   249   1      11.047306243972161      8.7460016317784195 -2.7711098506497966e-09
   250   1      9.1528487690308182      8.4861977261159431      5.3042689680624955
   251   1      8.7761826357431918      1.1089268069080278 -2.7665432303620118e-09
   252   1      6.7041234656289905       2.530686890991487  -2.766756726616159e-09
   253   1      8.4435863289678323      2.8617768115890634      5.3042689680670012
   254   1      7.0251269558171465     0.77648482132370322      5.3042689680676238
   255   1      8.0856304913398898      4.6832065508713798 -2.7680063324463654e-09
   256   1      6.0488900884713752      6.2924306589358512 -2.7691016180797801e-09
   257   1      7.7117381028731344      6.5124468260365571      5.3042689680646919
   258   1      6.3683887173729321      4.3872239294894833      5.3042689680663022
   259   1      7.3983898461896072      8.4117179941396696 -2.7711889644411316e-09
   260   1      5.7309537759366647      8.3237485546975378      5.3042689680630692
   261   1      5.2560745277878107     0.48268290208651354 -2.7662581780325113e-09
   262   1       3.234740705827464      1.9933362180304437 -2.7665689823179837e-09
   263   1      4.9716088263976523      2.2435125246359906         5.3042689680674
   264   1      3.4828555183845036     0.21625636166796358      5.3042689680678032
   265   1      4.6713578867308261      4.1245671552578571 -2.7675889624331492e-09
   266   1       2.704569604133046      5.7181091189576376  -2.768956464965386e-09
   267   1        4.41896683129068      6.0294443197112635      5.3042689680650748
   268   1      2.9533371152556684       3.856576635198333      5.3042689680664568
   269   1      4.1718568563389837      8.0186392187669089 -2.7706942406501796e-09
   270   1      2.0854444289412055       9.144413903707644 -2.7709276509414905e-09
   271   1      2.4781720188850627      7.5356639366210763      5.3042689680635373
   272   1     0.91027632013739279      5.3671846405204535      5.3042689680649691
   273   1     0.29392479933558963      8.7460016317720921      5.3042689680599553
   274   1      1.7651379915091407  3.4905411882373072e-13 -2.7661930612655635e-09
   275   1      1.4738408923160506      1.7177324377886496      5.3042689680674266
   276   1      16.270579653565338      10.308809437118271      5.3042689680605051
