(written by ASE)

224 atoms
1 atom types

0.0      18.030518817995052  xlo xhi
0.0      21.976243195427077  ylo yhi
0.0      7.0723586277786685  zlo zhi

Atoms # atomic

     1   1      14.458257678903868      11.554420725716577  7.9684726433409554e-08
     2   1      15.189518724987678       14.96794665800617  8.4617306971547499e-08
     3   1      14.795582077248385      13.230007807149612      1.7680897428671303
     4   1      15.556935975623679      16.799882132630756      1.7680897417874197
     5   1      12.411976158517882      9.9881215970577131  8.2194389604091136e-08
     6   1      10.882505904867859      11.953774651792044  8.4545506849679531e-08
     7   1      12.577214351892311        11.8369211654094      1.7680897424392585
     8   1      10.647010606313314      9.9881215977424738      1.7680897418794319
     9   1      12.996231580082414      13.593827602069743  8.4658955964507827e-08
    10   1      11.688359840949268      15.760228499104869  8.4887050765839354e-08
    11   1      13.424520753655775      15.376089707841645      1.7680897416915162
    12   1      11.282538197325746      13.931494841646959      1.7680897415855739
    13   1      13.824132827687803      17.182047304520719  8.4865422798028288e-08
    14   1      12.459938738670989      19.316662770448367  8.4882950060270004e-08
    15   1      14.192807723907215      18.938529858673785       1.768089741812918
    16   1      12.087956262494858       17.58120458015286      1.7680897417830126
    17   1      8.8340987812615879      9.9881215983604559  8.4638348713975743e-08
    18   1      7.6503371676166534      12.759379720522755  8.4868448603506276e-08
    19   1      9.3276663546045704      12.268719269156342      1.7680897417181618
    20   1      7.2294603094849403      11.151372479914285      1.7680897410960725
    21   1      9.6348559738971993       14.23472020229069  8.4791472183047724e-08
    22   1      8.2571421072381153      16.430971319670416  8.4831610581361715e-08
    23   1      9.9672955757253696      16.111774652307965      1.7680897417548509
    24   1      7.9312210074143019      14.578571426795779      1.7680897417092274
    25   1      10.348869230358325      17.938457379410263  8.4872664101996829e-08
    26   1      8.9547802944048147      19.976243194814764  8.4893503186237865e-08
    27   1      10.682244464243052      19.681736735483437      1.7680897418367123
    28   1      8.5883187808294696      18.283761045400404      1.7680897418264829
    29   1      3.3967167495442889      9.9881215979075382  8.6522617110618969e-08
    30   1       5.442998269377032      11.554420724716746  8.8577015805413045e-08
    31   1      3.9809721707644834      13.593827602478681  8.4804714741502455e-08
    32   1      5.7803226681565025      13.230007807377847      1.7680897407137064
    33   1      3.5619549437718785       11.83692116446171      1.7680897409800926
    34   1      6.1742593158761103      14.967946657676869  8.4903200817928644e-08
    35   1      4.8088734186478739       17.18204730434605  8.4833109549670955e-08
    36   1      6.5416765666238836      16.799882132034462      1.7680897417768373
    37   1      4.4092613444109494      15.376089707874641      1.7680897417810795
    38   1      6.8844790015777599      18.616016756555421  8.4876688176339785e-08
    39   1      5.1775483152513031      18.938529858390222      1.7680897418248191
    40   1      5.1111732154542926      9.9881215941865964      1.7680897353391523
    41   1      17.849358190165439      9.9881215985629463  8.4583111005304017e-08
    42   1      1.6317511972689136      9.9881215979747537      1.7680897413066059
    43   1      1.8672464954768446      11.953774652159664  8.4844027866431121e-08
    44   1     0.61959656478411429      14.234720202811335  8.4775190341965879e-08
    45   1      2.2672787876794658       13.93149484245405      1.7680897417802792
    46   1     0.31240694494678739      12.268719269410809      1.7680897415345189
    47   1      2.6731004317137033      15.760228499392925  8.4760093162826433e-08
    48   1      1.3336098213947611      17.938457380028016  8.4870519990625978e-08
    49   1      3.0726968535227819      17.581204580447665      1.7680897418250332
    50   1     0.95203616661543611      16.111774652837116      1.7680897417767105
    51   1       3.444679330041073      19.316662770609646  8.4880149340947134e-08
    52   1      1.6669850554605519      19.681736735970166      1.7680897418343844
    53   1      16.244719719374206      11.151372480351956      1.7680897422948985
    54   1      16.665596576329932      12.759379720475998  8.4524686420941464e-08
    55   1      16.946480416298574      14.578571427293959      1.7680897417020536
    56   1      17.272401516148452      16.430971320405252  8.4838734196520363e-08
    57   1      15.899738410417404       18.61601675723605  8.4868430273562274e-08
    58   1      17.603578189794636      18.283761046123434      1.7680897418161841
    59   1      17.970039703478204      19.976243195427074  8.4894229769489055e-08
    60   1      14.126432624371361      9.9881215902661573      1.7680897495033128
    61   1      17.272401535484857      3.5452718757106538    8.45328141766633e-08
    62   1      17.603578211922812      1.6924821497417175      1.7680897414643213
    63   1      16.665596587098975      7.2168634761444199  8.4363751484133656e-08
    64   1      16.946480431394683      5.3976717693746759      1.7680897414662697
    65   1       16.24471971946241      8.8248707213517665      1.7680897421760708
    66   1      15.899738432935127      1.3602264385739686  8.4522644604834796e-08
    67   1      13.824132848946395      2.7941958920413619  8.4547987566636113e-08
    68   1      15.556935996108557      3.1763610637675197      1.7680897414784167
    69   1      14.192807746782504      1.0377133375586494      1.7680897414682248
    70   1      15.189518741943251      5.0082965390984384   8.437810697344526e-08
    71   1      12.996231593578491      6.3824155932830697  8.4467534947439918e-08
    72   1      14.795582089886544      6.7462353895487857      1.7680897427047948
    73   1       13.42452077152655      4.6001534884680355      1.7680897414299503
    74   1      14.458257684721778      8.4218224792246534   7.960310860799294e-08
    75   1      12.577214365115339      8.1393220360409284      1.7680897423263369
    76   1      12.459938762132753     0.65958042555576291  8.4533517710524313e-08
    77   1      10.348869252267598      2.0377858156314224  8.4534826466366864e-08
    78   1      12.087956284300404      2.3950386158654386      1.7680897414549324
    79   1      10.682244487918059     0.29450645993002394      1.7680897414802834
    80   1      11.688359859147587      4.2160146968289922  8.4605211112186966e-08
    81   1      9.6348559875618793      5.7415229931952867  8.4564780851409672e-08
    82   1      11.282538208217375       6.044748351408086      1.7680897413675021
    83   1      9.9672955941038861       3.864468542803714      1.7680897414600527
    84   1      10.882505908978924      8.0224685411898395  8.4420815252958134e-08
    85   1      9.3276663667314068      7.7075239253654724      1.7680897415729955
    86   1      8.9547803179613741                       0  8.4533401898602502e-08
    87   1      6.8844790236844657      1.3602264381117732  8.4533414142117874e-08
    88   1       8.588318802758403      1.6924821489113753      1.7680897414819179
    89   1      8.2571421265041902      3.5452718750036802  8.4531041673702697e-08
    90   1      6.1742593332657467      5.0082965390883754  8.4664728471344232e-08
    91   1      7.9312210225101074       5.397671768987216      1.7680897414763588
    92   1      6.5416765872344289      3.1763610635044999      1.7680897414689287
    93   1      7.6503371780875851      7.2168634762926809  8.4712507844602754e-08
    94   1      5.4429982764700036      8.4218224783696201  8.8497353388683605e-08
    95   1      7.2294603116097091       8.824870720958641      1.7680897409774454
    96   1      5.7803226811760187      6.7462353900141316      1.7680897405491582
    97   1      3.4446793529592967     0.65958042621181601  8.4523168856596038e-08
    98   1      5.1775483374809887      1.0377133377222465      1.7680897414773693
    99   1      4.8088734400936239      2.7941958923826982  8.4512136585110203e-08
   100   1      2.6731004504029201      4.2160146975128709  8.4471603322081968e-08
   101   1      4.4092613628803168      4.6001534889248017      1.7680897415152881
   102   1      3.0726968753745942      2.3950386166730961      1.7680897414896417
   103   1      3.9809721849780977      6.3824155939796032  8.4610134160030462e-08
   104   1      1.8672465002603964      8.0224685416593129  8.4715132007948428e-08
   105   1      3.5619549552717276      8.1393220352293287      1.7680897408643736
   106   1      2.2672787997954766      6.0447483524723937      1.7680897415568073
   107   1      17.970039727256268  7.9430240163001562e-10  8.4524398039396903e-08
   108   1      1.6669850790177512     0.29450646081002224      1.7680897414678829
   109   1      1.3336098433526316      2.0377858166104561  8.4523822149808615e-08
   110   1     0.95203618516638711      3.8644685435748785       1.768089741474939
   111   1     0.61959657851141881      5.7415229938236756  8.4542640391469163e-08
   112   1     0.31240695817675018      7.7075239256528114      1.7680897413873935
   113   1      14.458257678903834       11.55442072571663      3.5361793935740655
   114   1      15.189518724987682      14.967946658006188      3.5361793985066332
   115   1       14.79558207724838      13.230007807149612      5.3042690567564774
   116   1      15.556935975623686      16.799882132630749      5.3042690556767651
   117   1      12.411976158517868      9.9881215970577095      3.5361793960837131
   118   1      10.882505904867864      11.953774651792058       3.536179398434832
   119   1      12.577214351892311      11.836921165409398      5.3042690563286028
   120   1      10.647010606313307      9.9881215977424862      5.3042690557687644
   121   1      12.996231580082414      13.593827602069757      3.5361793985482937
   122   1      11.688359840949268      15.760228499104858      3.5361793987763863
   123   1      13.424520753655774      15.376089707841659      5.3042690555808552
   124   1      11.282538197325753       13.93149484164695      5.3042690554749177
   125   1      13.824132827687801      17.182047304520705      3.5361793987547561
   126   1      12.459938738670981      19.316662770448367       3.536179398772286
   127   1      14.192807723907205      18.938529858673782      5.3042690557022407
   128   1      12.087956262494847      17.581204580152853      5.3042690556723393
   129   1      8.8340987812615879       9.988121598360447      3.5361793985276715
   130   1      7.6503371676166569      12.759379720522748       3.536179398757787
   131   1      9.3276663546045757      12.268719269156342       5.304269055607497
   132   1      7.2294603094849474      11.151372479914281      5.3042690549854106
   133   1      9.6348559738971993       14.23472020229069      3.5361793986808117
   134   1       8.257142107238117      16.430971319670419      3.5361793987209551
   135   1      9.9672955757253714      16.111774652307965      5.3042690556441849
   136   1      7.9312210074142948      14.578571426795788      5.3042690555985628
   137   1      10.348869230358316      17.938457379410259      3.5361793987619969
   138   1      8.9547802944048271      19.976243194814757      3.5361793987828363
   139   1      10.682244464243064      19.681736735483444       5.304269055726059
   140   1       8.588318780829459      18.283761045400404      5.3042690557158165
   141   1      3.3967167495442943      9.9881215979075311      3.5361794004119589
   142   1       5.442998269377024      11.554420724716739      3.5361794024663502
   143   1      3.9809721707644865      13.593827602478695      3.5361793986940531
   144   1      5.7803226681565061      13.230007807377838      5.3042690546030373
   145   1      3.5619549437718789      11.836921164461716      5.3042690548694296
   146   1      6.1742593158761165      14.967946657676876      3.5361793987925401
   147   1      4.8088734186478739      17.182047304346042      3.5361793987224441
   148   1      6.5416765666238801      16.799882132034469      5.3042690556661691
   149   1      4.4092613444109476      15.376089707874648      5.3042690556704155
   150   1      6.8844790015777608      18.616016756555421      3.5361793987660159
   151   1      5.1775483152513155      18.938529858390233      5.3042690557141556
   152   1      5.1111732154542882      9.9881215941865893       5.304269049228493
   153   1      17.849358190165461      9.9881215985629428      3.5361793984724388
   154   1      1.6317511972689089      9.9881215979747502      5.3042690551959444
   155   1      1.8672464954768624      11.953774652159673      3.5361793987333621
   156   1     0.61959656478411362      14.234720202811348        3.53617939866453
   157   1      2.2672787876794613       13.93149484245404      5.3042690556696197
   158   1     0.31240694494678689      12.268719269410814      5.3042690554238341
   159   1       2.673100431713705      15.760228499392925      3.5361793986494283
   160   1      1.3336098213947534      17.938457380028002      3.5361793987598436
   161   1      3.0726968535227899      17.581204580447668       5.304269055714359
   162   1     0.95203616661543877      16.111774652837134      5.3042690556660439
   163   1      3.4446793300410787      19.316662770609632      3.5361793987694861
   164   1      1.6669850554605556      19.681736735970158       5.304269055723716
   165   1      16.244719719374231      11.151372480351943       5.304269056184185
   166   1      16.665596576329925      12.759379720476044      3.5361793984140224
   167   1      16.946480416298574      14.578571427293973      5.3042690555913952
   168   1      17.272401516148445      16.430971320405256      3.5361793987280659
   169   1      15.899738410417404      18.616016757236039      3.5361793987577799
   170   1      17.603578189794636       18.28376104612342      5.3042690557055261
   171   1      17.970039703478175      19.976243195427074      3.5361793987835743
   172   1      14.126432624371372      9.9881215902661697      5.3042690633926064
   173   1       17.27240153548485      3.5452718757106489      3.5361793984221475
   174   1      17.603578211922795      1.6924821497417111      5.3042690553536591
   175   1       16.66559658709896      7.2168634761444013      3.5361793982530796
   176   1      16.946480431394704      5.3976717693746723      5.3042690553556069
   177   1       16.24471971946241       8.824870721351763       5.304269056065384
   178   1       15.89973843293512      1.3602264385739706      3.5361793984119738
   179   1      13.824132848946393      2.7941958920413654       3.536179398437326
   180   1      15.556935996108566      3.1763610637675144      5.3042690553677456
   181   1      14.192807746782524      1.0377133375586527       5.304269055357552
   182   1      15.189518741943253      5.0082965390984402      3.5361793982674476
   183   1      12.996231593578491      6.3824155932830617      3.5361793983568792
   184   1      14.795582089886553      6.7462353895487892      5.3042690565941557
   185   1       13.42452077152655      4.6001534884680355      5.3042690553192955
   186   1      14.458257684721749      8.4218224792245966      3.5361793934924433
   187   1      12.577214365115337      8.1393220360409284      5.3042690562156727
   188   1      12.459938762132738     0.65958042555576479      3.5361793984228651
   189   1      10.348869252267603       2.037785815631421       3.536179398424157
   190   1      12.087956284300397      2.3950386158654395      5.3042690553442728
   191   1      10.682244487918055     0.29450645993002128      5.3042690553696206
   192   1      11.688359859147582      4.2160146968289904        3.53617939849455
   193   1       9.634855987561874      5.7415229931952894      3.5361793984541174
   194   1      11.282538208217364      6.0447483514080895      5.3042690552568397
   195   1      9.9672955941038897      3.8644685428037153      5.3042690553493852
   196   1      10.882505908978924       8.022468541189836      3.5361793983101504
   197   1       9.327666366731405      7.7075239253654795       5.304269055462342
   198   1       8.954780317961383                       0       3.536179398422731
   199   1      6.8844790236844711      1.3602264381117712      3.5361793984227488
   200   1      8.5883188027583959      1.6924821489113824      5.3042690553712513
   201   1      8.2571421265041938      3.5452718750036785       3.536179398420372
   202   1      6.1742593332657512      5.0082965390883682      3.5361793985540633
   203   1      7.9312210225101101      5.3976717689872205      5.3042690553656877
   204   1      6.5416765872344351      3.1763610635045065      5.3042690553582679
   205   1      7.6503371780875931      7.2168634762926924      3.5361793986018406
   206   1      5.4429982764700151      8.4218224783696396      3.5361794023866762
   207   1      7.2294603116097171       8.824870720958641       5.304269054866805
   208   1      5.7803226811760267      6.7462353900141334      5.3042690544384774
   209   1      3.4446793529592927     0.65958042621181501      3.5361793984125094
   210   1      5.1775483374810012      1.0377133377222501      5.3042690553666949
   211   1      4.8088734400936239      2.7941958923826982       3.536179398401472
   212   1      2.6731004504029188      4.2160146975128709      3.5361793983609364
   213   1      4.4092613628803203      4.6001534889248124      5.3042690554046192
   214   1      3.0726968753745987      2.3950386166730921      5.3042690553789775
   215   1      3.9809721849781003      6.3824155939796139      3.5361793984994696
   216   1      1.8672465002604102       8.022468541659304       3.536179398604463
   217   1      3.5619549552717245      8.1393220352293252      5.3042690547537106
   218   1      2.2672787997954638       6.044748352472384      5.3042690554461371
   219   1      17.970039727256264  7.9430506616516243e-10      3.5361793984137178
   220   1      1.6669850790177467     0.29450646081001602      5.3042690553572207
   221   1      1.3336098433526329      2.0377858166104637      3.5361793984131507
   222   1     0.95203618516638888      3.8644685435748709      5.3042690553642711
   223   1     0.61959657851141503      5.7415229938236889      3.5361793984319601
   224   1     0.31240695817675596      7.7075239256528016      5.3042690552767127
