(written by ASE)

180 atoms
1 atom types

0.0      14.584242368018158  xlo xhi
0.0       21.78130250393928  ylo yhi
0.0      7.0723586277786685  zlo zhi

Atoms # atomic

     1   1      6.1724712435849547      13.179992308671705       7.072357487215795
     2   1      5.7384895037866333      11.473502354442568      1.7680885003948368
     3   1      7.1159620630101958      16.757325484600852      7.0723575085166308
     4   1      6.6574003229453744      14.932089156951845      1.7680885285497827
     5   1      3.9286721358304613      11.810652041389616      7.0723574783172056
     6   1      2.7688067811194701      14.055724473365521      7.0723574961639875
     7   1      4.4421802316989476      13.625717868737434      1.7680885220065623
     8   1      2.3467787833642633      12.132481431934998       1.768088511259815
     9   1      4.9364018349260119      15.413340381415988      7.0723575030297807
    10   1      3.6929391087716139      17.662876253583395      7.0723575113640296
    11   1      5.4114027202948458      17.210971299920427       1.768088539154328
    12   1      3.2187697886220064      15.871556936049281       1.768088534851761
    13   1      5.8486615635594807      18.947360193183762      7.0723575129037641
    14   1      4.1177539986338338      19.393712322003392      1.7680885428052682
    15   1      13.030610670790201      11.473502307262871      7.0723574712403998
    16   1     0.69571309301301321      12.657257923378078      7.0723574852141562
    17   1      13.949521505834147      14.932089155608137      7.0723574995066247
    18   1      1.0783033236840496      14.469566955674601      1.7680885269342126
    19   1      13.464592427842998      13.179992309867936      1.7680885165566422
    20   1      1.5148005296709615      16.299564746906842      7.0723575073109091
    21   1     0.25984970251824374      18.550861111682902      7.0723575126767697
    22   1      1.9520904471311882      18.116114188084584      1.7680885416189955
    23   1      14.408083245155117      16.757325483145316      1.7680885378169922
    24   1      2.4129193924247878      19.781302502074148      7.0723575141182344
    25   1      9.6388998933646057       12.13248142777055      7.0723574822021167
    26   1      11.220793398423075      11.810651978677274      1.7680885076863495
    27   1      11.734301422372884      13.625717879389116      7.0723574930154189
    28   1      10.510890975080464      15.871556934521283      7.0723575058238879
    29   1      12.228523016918192       15.41334038144044       1.768088532383804
    30   1       10.06092795599044      14.055724488721877      1.7680885254643468
    31   1      12.703523902957237      17.210971299338958      7.0723575101976888
    32   1      11.409875183774023      19.393712323753842      7.0723575138320411
    33   1      13.140782747701692      18.947360193808205      1.7680885422930539
    34   1       10.98506029357327      17.662876254140237      1.7680885406965834
    35   1      7.9878342837458884      12.657257912054723      1.7680885144194134
    36   1      8.3704245084523201      14.469566952505472      7.0723574977815131
    37   1        8.80692171470624      16.299564746450905      1.7680885364802827
    38   1      9.2442116319212371      18.116114189653661      7.0723575124841158
    39   1      9.7050405775630217      19.781302503939269      1.7680885433851385
    40   1      7.5519708874668181      18.550861112352862      1.7680885417109722
    41   1     0.21829603651232654      11.051895397458422      1.7680885069446881
    42   1      7.5104172781090881      11.051895425801868      7.0723574777333225
    43   1      13.949522129230127      4.8492133739250418      7.0723574112005858
    44   1       13.03061097498562      8.3078002703312475      7.0723574388201218
    45   1      13.464592890890296      6.6013102415802498       1.768088452195073
    46   1      12.661981381386967      9.8906513581995252      1.7680884843220155
    47   1      11.409876037223111     0.38759019290634894      7.0723573978460372
    48   1      13.140783581379303     0.83394231913323558       1.768088427574257
    49   1      12.703524689068429      2.5703312239080653      7.0723574011449557
    50   1       10.51089166084234      3.9097455752749348      7.0723574052150004
    51   1      12.228523678189504      4.3679621497154244      1.7680884368905825
    52   1      10.985061095817374      2.1184262630608122      1.7680884290887839
    53   1      11.734301916594505      6.1555846652232287      7.0723574175221442
    54   1      9.6389002572783227      7.6488210607668137      7.0723574279831203
    55   1      11.220793626221328      7.9706504439728771      1.7680884608907261
    56   1       10.06092847031938      5.7255780261711671       1.768088443447466
    57   1       10.92790368360172      9.8906512500271688      7.0723574550214847
    58   1      9.1139422618605472      9.8906512632435639      1.7680884841590054
    59   1      9.7050414403601657                       0      1.7680884266054577
    60   1      9.2442124435460649      1.6651883057663563      7.0723573989193298
    61   1      7.1159628175029299      3.0239770257353809      7.0723574023571869
    62   1      8.8069224292216948      3.4817377477915326      1.7680884328301067
    63   1      7.5519717111119018       1.230441380862757      1.7680884277759905
    64   1      8.3704250702715388       5.311735559818775       7.072357412731459
    65   1      6.1724717071062534      6.6013102395689298      7.0723574228506143
    66   1      7.9878346656209436      7.1240446342589889      1.7680884540582626
    67   1      6.6574009458387362      4.8492133745257524      1.7680884402296633
    68   1      7.5104174412433053      8.7294071899912868      7.0723574322174105
    69   1      5.3698601965050043      9.8906511846808147      7.0723574548040693
    70   1      5.7384897720165489      8.3078003170906332      1.7680884679683617
    71   1      5.8486623975756489     0.83394231857074164      7.0723573980570249
    72   1      3.6929399124307576      2.1184262632268553      7.0723573994656235
    73   1       5.411403505211859      2.5703312239372429      1.7680884299757909
    74   1      4.1177548528627028     0.38759019265944239      1.7680884264292069
    75   1      4.9364024940106717      4.3679621484426452      7.0723574074619684
    76   1      2.7688072779808106      5.7255780088977115      7.0723574141394341
    77   1      4.4421807403524483      6.1555846526324576       1.768088446506735
    78   1      3.2187704796843524      3.9097455761347639      1.7680884341002969
    79   1      3.9286725205793367      7.9706505050768488      7.0723574315664477
    80   1      1.8218210780732189      9.8906512654781675      7.0723574549148562
    81   1      3.6357824987058773      9.8906512475273729      1.7680884840982405
    82   1      2.3467789997150845      7.6488210625844166      1.7680884570777065
    83   1      2.4129202556821778  4.6674664133567312e-11       7.072357396854593
    84   1     0.25985052643873569      1.2304413813609443       7.072357398604832
    85   1      1.9520912586970574       1.665188305708647      1.7680884277261897
    86   1      1.5148012448743127      3.4817377486508883      7.0723574035202468
    87   1      1.0783038865075114      5.3117355622166311      1.7680884418707123
    88   1      14.408084001190003       3.023977025365145      1.7680884316177932
    89   1     0.69571348924237786      7.1240446448175163        7.07235742490096
    90   1     0.21829631767733892      8.7294071602574324      1.7680884614612107
    91   1      6.1724712435849654        13.1799923086717      3.5361781733264697
    92   1      5.7384895037866599      11.473502354442568      5.3042678142841639
    93   1      7.1159620630102065      16.757325484600862      3.5361781946273054
    94   1      6.6574003229453904      14.932089156951838       5.304267842439109
    95   1      3.9286721358304724      11.810652041389611       3.536178164427882
    96   1      2.7688067811194528      14.055724473365515      3.5361781822746532
    97   1      4.4421802316989458      13.625717868737429      5.3042678358958995
    98   1      2.3467787833642593      12.132481431935011      5.3042678251491591
    99   1      4.9364018349260164      15.413340381416004      3.5361781891404611
   100   1      3.6929391087716281      17.662876253583409      3.5361781974746873
   101   1      5.4114027202948369      17.210971299920452      5.3042678530436627
   102   1      3.2187697886220024      15.871556936049302      5.3042678487410981
   103   1      5.8486615635594781      18.947360193183766      3.5361781990143943
   104   1      4.1177539986338507      19.393712322003388      5.3042678566946071
   105   1       13.03061067079021       11.47350230726288        3.53617815735105
   106   1      0.6957130930130131       12.65725792337809      3.5361781713248099
   107   1      13.949521505834158      14.932089155608145      3.5361781856173007
   108   1      1.0783033236840458      14.469566955674601      5.3042678408235604
   109   1      13.464592427843012      13.179992309867938      5.3042678304459647
   110   1       1.514800529670977      16.299564746906842      3.5361781934215655
   111   1     0.25984970251824491      18.550861111682909      3.5361781987874554
   112   1      1.9520904471312055      18.116114188084573      5.3042678555083231
   113   1      14.408083245155117      16.757325483145319      5.3042678517063155
   114   1      2.4129193924247971      19.781302502074162      3.5361782002289233
   115   1      9.6388998933646057      12.132481427770569      3.5361781683127624
   116   1      11.220793398423062      11.810651978677274      5.3042678215756744
   117   1      11.734301422372893      13.625717879389144      3.5361781791260825
   118   1      10.510890975080448      15.871556934521282      3.5361781919345634
   119   1      12.228523016918203      15.413340381440428      5.3042678462731354
   120   1      10.060927955990424      14.055724488721903       5.304267839353674
   121   1      12.703523902957246      17.210971299338954      3.5361781963083545
   122   1      11.409875183774018      19.393712323753832      3.5361781999426847
   123   1      13.140782747701673      18.947360193808205      5.3042678561823893
   124   1      10.985060293573264      17.662876254140237      5.3042678545859427
   125   1      7.9878342837459044      12.657257912054709      5.3042678283087472
   126   1      8.3704245084523272      14.469566952505486      3.5361781838921784
   127   1      8.8069217147062346      16.299564746450912      5.3042678503696115
   128   1      9.2442116319212371      18.116114189653658      3.5361781985947975
   129   1      9.7050405775630413      19.781302503939276      5.3042678572744784
   130   1      7.5519708874668057      18.550861112352894      5.3042678556003207
   131   1     0.21829603651232446      11.051895397458402       5.304267820834017
   132   1      7.5104172781090925      11.051895425801879      3.5361781638439624
   133   1       13.94952212923012      4.8492133739250418      3.5361780973112449
   134   1      13.030610974985619      8.3078002703312404      3.5361781249307933
   135   1      13.464592890890289      6.6013102415802525      5.3042677660843989
   136   1      12.661981381386967      9.8906513581995252      5.3042677982113631
   137   1      11.409876037223103     0.38759019290634628      3.5361780839566985
   138   1      13.140783581379285     0.83394231913322947      5.3042677414635921
   139   1      12.703524689068432      2.5703312239080622      3.5361780872556121
   140   1      10.510891660842331      3.9097455752749255      3.5361780913256724
   141   1      12.228523678189497      4.3679621497154377      5.3042677507799061
   142   1      10.985061095817372      2.1184262630608193       5.304267742978106
   143   1      11.734301916594504       6.155584665223226      3.5361781036328055
   144   1      9.6389002572783067      7.6488210607668146       3.536178114093786
   145   1      11.220793626221335      7.9706504439728771      5.3042677747800591
   146   1       10.06092847031938        5.72557802617116      5.3042677573368078
   147   1      10.927903683601713      9.8906512500271848      3.5361781411321584
   148   1      9.1139422618605312      9.8906512632435639      5.3042677980483326
   149   1       9.705041440360171  1.1546319319931571e-14      5.3042677404948027
   150   1      9.2442124435460524      1.6651883057663421      3.5361780850299902
   151   1      7.1159628175029299      3.0239770257353809      3.5361780884678478
   152   1      8.8069224292216948      3.4817377477915206      5.3042677467194412
   153   1      7.5519717111118982      1.2304413808627508      5.3042677416653365
   154   1      8.3704250702715335      5.3117355598187768      3.5361780988421261
   155   1      6.1724717071062472        6.60131023956892      3.5361781089612916
   156   1      7.9878346656209418      7.1240446342590049      5.3042677679475965
   157   1      6.6574009458387353      4.8492133745257551      5.3042677541189978
   158   1      7.5104174412433071      8.7294071899912868      3.5361781183280563
   159   1      5.3698601965049875      9.8906511846808218      3.5361781409147053
   160   1      5.7384897720165702      8.3078003170906687      5.3042677818576918
   161   1      5.8486623975756533     0.83394231857073886      3.5361780841676835
   162   1      3.6929399124307642      2.1184262632268518       3.536178085576283
   163   1      5.4114035052118599      2.5703312239372447      5.3042677438651271
   164   1      4.1177548528627161     0.38759019265944422       5.304267740318541
   165   1      4.9364024940106743       4.367962148442647      3.5361780935726328
   166   1      2.7688072779808155      5.7255780088977168      3.5361781002501074
   167   1      4.4421807403524474      6.1555846526324718      5.3042677603960664
   168   1      3.2187704796843599      3.9097455761347768      5.3042677479896332
   169   1      3.9286725205793354      7.9706505050768444      3.5361781176771228
   170   1      1.8218210780732291      9.8906512654781675      3.5361781410255362
   171   1      3.6357824987058893      9.8906512475273711      5.3042677979875741
   172   1      2.3467789997150743      7.6488210625844193      5.3042677709670407
   173   1        2.41292025568218  4.6678216847470311e-11      3.5361780829652729
   174   1     0.25985052643873846      1.2304413813609407      3.5361780847155204
   175   1      1.9520912586970751      1.6651883057086623      5.3042677416155248
   176   1      1.5148012448743131      3.4817377486508811      3.5361780896309178
   177   1      1.0783038865075119      5.3117355622166276      5.3042677557600486
   178   1       14.40808400119001      3.0239770253651486      5.3042677455071239
   179   1     0.69571348924238652      7.1240446448175199      3.5361781110116266
   180   1     0.21829631767732852      8.7294071602574288      5.3042677753505485
