(written by ASE)

100 atoms
1 atom types

0.0      7.9114520242947819  xlo xhi
0.0       21.94770026319495  ylo yhi
0.0      7.0723586277786685  zlo zhi

Atoms # atomic

     1   1    0.027690905950105815      13.464689673521145      1.7680897548962911
     2   1      7.1292827561456136      11.697128048775197      3.5361793942625384
     3   1      3.1735567442094048      11.697128048566478      1.7680897373155324
     4   1      4.7353122979755442      11.117832818362945       3.536179395673245
     5   1      5.5859223642250315      12.596462267007773      1.7680897467967474
     6   1      4.8272278228494603      15.096181610755073      1.7680897651276473
     7   1      6.3852359370988347      14.251521202182559      3.5361794166488552
     8   1      3.9834169181778116      13.464689673321764      3.5361794118427539
     9   1      7.2183382652605665      15.932862332459937      1.7680897703780867
    10   1      6.4750884984048485      18.415307873042604      1.7680897798928326
    11   1     0.15287332382478619      17.589694778407559      3.5361794342366428
    12   1      5.6625101251296526      16.751432940443518      3.5361794309952259
    13   1      7.2778028118945768      19.947700263066938      3.5361794391370971
    14   1     0.77958628580088252      11.117832817188589      1.7680897387356675
    15   1      1.6301963522835623      12.596462266969308      3.5361794037490548
    16   1      2.4295099249373995      14.251521202062129      1.7680897597064498
    17   1       1.706784113017263      16.751432940312991      1.7680897740552168
    18   1      3.2626122530833634      15.932862332515388      3.5361794273287015
    19   1     0.87150181076317979       15.09618161057649      3.5361794220766409
    20   1      4.1085993359335928      17.589694778546786      1.7680897772903925
    21   1      3.3220767996819887      19.947700263194935      1.7680897821983053
    22   1      4.9031561522229286      19.233141769260268      3.5361794380857483
    23   1       2.519362486236862      18.415307873086988      3.5361794368396069
    24   1     0.94743014010623505      19.233141769126792      1.7680897811510834
    25   1      7.1292651349408604      8.2506088531502968 -1.0206004872807703e-08
    26   1      6.2644725537929542      9.9738733548002241      1.7680896924965459
    27   1      7.2777859995712495                       0 -6.9875385001465674e-08
    28   1      5.6625094265501286      3.1962677956394101 -5.7436739519242856e-08
    29   1      7.2183436859853698      4.0148551854780079      1.7680896049427739
    30   1      6.4750813462968857      1.5323977260425412      1.7680895905990044
    31   1       6.385248275703491      5.6962060243250692 -3.7148518018200133e-08
    32   1      3.9834257499120249      6.4830407864836515  -3.107976162972387e-08
    33   1      5.5859177669955997      7.3512814536860143      1.7680896361278866
    34   1      4.8272465160888087      4.8515365129856027      1.7680896123055103
    35   1      4.7352845740854512      8.8299058836670241  -1.135558340598579e-08
    36   1      2.3087465415542647      9.9738733545868392  3.5555260713693398e-08
    37   1      3.1735391229802712      8.2506088528960895      1.7680896467412193
    38   1      4.9031470765225924      0.7145524526034307 -6.8328397460867833e-08
    39   1      2.5193553341688157      1.5323977260742279  -6.633352810081885e-08
    40   1      4.1085970643485368      2.3580029002877554      1.7680895946202255
    41   1      3.3220599874867309  1.1018563839127077e-10      1.7680895870644251
    42   1       3.262617673828748      4.0148551854785728 -5.2000016087644273e-08
    43   1     0.87152050388740521       4.851536512859389 -4.4641660593670855e-08
    44   1      2.4295222634718328      5.6962060241591468      1.7680896198039611
    45   1      1.7067834143847387      3.1962677955396073      1.7680895995185197
    46   1      1.6301917548633393      7.3512814533047974 -2.0813532621725188e-08
    47   1     0.77955856208220564      8.8299058846086886      1.7680896455865951
    48   1    0.027699737653117285      6.4830407861794601      1.7680896258640491
    49   1     0.94742106435626972     0.71455245246407018      1.7680895886240848
    50   1     0.15287105216974647      2.3580029001594882 -6.2316500574170204e-08
    51   1    0.027690905950085245      13.464689673521164      5.3042690687856586
    52   1      7.1292827561456749      11.697128048774973  8.0373209813947303e-08
    53   1      3.1735567442094328      11.697128048566416      5.3042690512048907
    54   1      4.7353122979755771      11.117832818362832  8.1783935726725008e-08
    55   1      5.5859223642250111      12.596462267007771      5.3042690606861091
    56   1      4.8272278228494585      15.096181610755082      5.3042690790169962
    57   1      6.3852359370988419      14.251521202182552  1.0275950961244155e-07
    58   1      3.9834169181777801       13.46468967332178  9.7953408865598031e-08
    59   1      7.2183382652605701      15.932862332459925      5.3042690842674238
    60   1      6.4750884984048556      18.415307873042583      5.3042690937821675
    61   1     0.15287332382478636      17.589694778407555  1.2034731882238355e-07
    62   1      5.6625101251296517      16.751432940443522  1.1710589082833307e-07
    63   1      7.2778028118945777      19.947700263066938  1.2524774118281837e-07
    64   1     0.77958628580089973      11.117832817188452      5.3042690526248819
    65   1      1.6301963522835121      12.596462266969276  8.9859752973798441e-08
    66   1      2.4295099249373981      14.251521202062134      5.3042690735958011
    67   1      1.7067841130172625      16.751432940312988      5.3042690879445464
    68   1      3.2626122530833594      15.932862332515393  1.1343936654211599e-07
    69   1     0.87150181076317812      15.096181610576497  1.0818730471638478e-07
    70   1      4.1085993359335866      17.589694778546804      5.3042690911797292
    71   1       3.322076799681974       19.94770026319495      5.3042690960876504
    72   1      4.9031561522229348      19.233141769260268  1.2419639921288908e-07
    73   1      2.5193624862368647      18.415307873086988  1.2295028287383449e-07
    74   1     0.94743014010624371      19.233141769126771      5.3042690950404197
    75   1      7.1292651349407992      8.2506088531500978      3.5361793036833258
    76   1      6.2644725537929213      9.9738733548002187      5.3042690063857139
    77   1       7.277785999571261                       0      3.5361792440139475
    78   1      5.6625094265501312      3.1962677956394137      3.5361792564525927
    79   1      7.2183436859853671      4.0148551854780079      5.3042689188321113
    80   1      6.4750813462968804      1.5323977260425352      5.3042689044883362
    81   1      6.3852482757034901      5.6962060243250487      3.5361792767408256
    82   1      3.9834257499120609      6.4830407864836728       3.536179282809583
    83   1      5.5859177669955811      7.3512814536860338       5.304268950017236
    84   1      4.8272465160888096      4.8515365129856063      5.3042689261948555
    85   1      4.7352845740854184       8.829905883666914      3.5361793025337094
    86   1      2.3087465415543655      9.9738733545868428      3.5361793494445455
    87   1      3.1735391229803067      8.2506088528961605      5.3042689606305746
    88   1      4.9031470765225968     0.71455245260342259      3.5361792455609318
    89   1       2.519355334168814      1.5323977260742234      3.5361792475558054
    90   1      4.1085970643485394      2.3580029002877536      5.3042689085095507
    91   1      3.3220599874867336  1.1018741474794037e-10      5.3042689009537627
    92   1      3.2626176738287471      4.0148551854785799      3.5361792618893229
    93   1     0.87152050388740143      4.8515365128593926      3.5361792692476843
    94   1      2.4295222634718399      5.6962060241591503      5.3042689336933053
    95   1      1.7067834143847374      3.1962677955396042      5.3042689134078476
    96   1      1.6301917548633784      7.3512814533047619      3.5361792930757834
    97   1     0.77955856208222507       8.829905884608813      5.3042689594758228
    98   1     0.02769973765309269       6.483040786179429      5.3042689397534186
    99   1     0.94742106435626905     0.71455245246407018       5.304268902513428
   100   1      0.1528710521697447      2.3580029001594864      3.5361792515728352
