(written by ASE)

160 atoms
1 atom types

0.0      12.746228261363814  xlo xhi
0.0      22.012348412299733  ylo yhi
0.0      7.0723586277786685  zlo zhi

Atoms # atomic

     1   1      12.682608627070413      13.552652360401884      1.3260674730960993
     2   1      11.675634217153291      11.824333259150325      3.0941571229409779
     3   1       7.794564250438305      12.514116092265446       1.326067468836142
     4   1      9.2823811334395732      11.288482904582759      3.0941571171474544
     5   1      6.7489319260111591      11.166070490892503      3.0941571212392156
     6   1      10.284660359275346      12.809223990457902      1.3260674678202464
     7   1      9.8228935778501452      15.465358166591043      1.3260674771783392
     8   1      11.248866135902068      14.450782131126964      3.0941571318003072
     9   1      8.8222002093327188      13.930842429398767      3.0941571294449557
    10   1      12.272743623924692      16.053100355385631      1.3260674793620111
    11   1      11.820505926021561      18.595825335567273      1.3260674831029906
    12   1      10.828957368986048      17.025475277299684      3.0941571377498396
    13   1     0.05316447235648257      20.012348412299733      3.0941571408572157
    14   1      2.9092670033226411      11.288482904855448      1.3260674602821769
    15   1      5.3025200852722527      11.824333259347025      1.3260674663315468
    16   1      4.8757520054070422      14.450782131091648       1.326067474868603
    17   1      6.3094944958967352      13.552652361012882      3.0941571299690054
    18   1      3.9115462287967309      12.809223990519399      3.0941571246389117
    19   1      7.3522571764584699      15.031591755986883      1.3260674767894629
    20   1      6.9367333845737384      17.580176853472054      1.3260674817756226
    21   1      8.3797301988186828      16.526274666641193      3.0941571367288603
    22   1       5.899629493192343      16.053100354915568      3.0941571363003608
    23   1      9.3792459050338746      18.069611281398426      1.3260674822423553
    24   1      10.367878636892673      19.530031301371437      3.0941571403993327
    25   1      7.9175583224994233      19.097513907267114       3.094157140149675
    26   1     0.37581779473290516      11.166070491559529      1.3260674647462836
    27   1      1.4214501192482891      12.514116092514474      3.0941571255931382
    28   1      2.4490860783822481      13.930842429804668      1.3260674725640347
    29   1      2.0066160679562697      16.526274667342829      1.3260674797877419
    30   1      3.4497794468876837      15.465358167043263      3.0941571341159575
    31   1      0.9791430458995265      15.031591756506272      3.0941571337387628
    32   1      4.4558432382117505      17.025475277481473      1.3260674807856261
    33   1      3.9947645064559336      19.530031301606897      1.3260674834346518
    34   1      5.4473917954337541      18.595825335316526       3.094157140025791
    35   1      3.0061317742350999      18.069611282026774      3.0941571391891651
    36   1       6.426278603492265      20.012348411657776      1.3260674838822288
    37   1     0.56361925389858292      17.580176854118374      3.0941571387454632
    38   1      1.5444441917369314      19.097513908165553       1.326067483221955
    39   1       11.67563413308581      8.1880151273239843      3.0941570964470526
    40   1      10.730104872937572      10.006174204729044      1.3260674530157124
    41   1      10.828957175571574      2.9868731359721319      3.0941570792489625
    42   1      11.820505717330695      1.4165230789327952      1.3260674193288486
    43   1       11.24886598981705      5.5615662775094163      3.0941570865449117
    44   1      8.8222000706517676      6.0815059773663105      3.0941570891875272
    45   1      10.284660243806835      7.2031244128182585      1.3260674376499482
    46   1        9.82289340715813      4.5469902424311677      1.3260674267943389
    47   1      9.2823810666347732       8.723865503920214      3.0941571024645378
    48   1      6.7489318497765449      8.8462779276437917       3.094157097717444
    49   1      8.0799522485108781      10.006174204788383      1.3260674531732115
    50   1      7.7945641476132312      7.4982323226460057      1.3260674367680301
    51   1      10.367878423881768     0.48231711289050683      3.0941570758147927
    52   1      7.9175581104356612     0.91483450249340148      3.0941570761077539
    53   1      9.3792456994026985      1.9427371308142822      1.3260674204325744
    54   1      8.3797300100467407      3.4860737419881449      3.0941570805147451
    55   1      5.8996293143937999      3.9592480601251476      3.0941570810726002
    56   1       7.352257017498709      4.9807566554902731      1.3260674272706432
    57   1      6.9367331833440389      2.4321715579790166      1.3260674210198016
    58   1      6.3094943734695272      6.4596960567596238      3.0941570885863001
    59   1      3.9115461125768598      7.2031244123926434      3.0941570944968411
    60   1      5.3025200033382163      8.1880151273686756      1.3260674397817487
    61   1      4.8757518586888438      5.5615662773414059      1.3260674296117976
    62   1      4.3569907421135934      10.006174204679681      3.0941571099483269
    63   1      1.7068381177668819      10.006174204016311      3.0941571098239198
    64   1      2.9092669352023433      8.7238655039634772      1.3260674455926031
    65   1      6.4262783873921396  6.9505823319100467e-10      1.3260674182479018
    66   1      5.4473915867254563      1.4165230793589056      3.0941570762673773
    67   1      3.0061315686702175      1.9427371302468408      3.0941570773798328
    68   1       4.455843044781866      2.9868731359651122      1.3260674222950699
    69   1      3.9947642934794305     0.48231711277557832      1.3260674188627168
    70   1      3.4497792763878321      4.5469902420146084      3.0941570837370862
    71   1     0.97914288655182125      4.9807566549811622      3.0941570842148955
    72   1      2.4490859399473273      6.0815059768307638      1.3260674322893402
    73   1      2.0066158792652491      3.4860737412098075      1.3260674235678807
    74   1      1.4214500173821605      7.4982323223701393      3.0941570935550593
    75   1     0.37581771986279322      8.8462779282522384      1.3260674411578655
    76   1      12.682608503782754      6.4596960557505962      1.3260674316897165
    77   1    0.053164256271461111  8.8817850580355092e-16      3.0941570752031091
    78   1      1.5444439796424325     0.91483450155689816       1.326067419167793
    79   1      0.5636190525467929      2.4321715571416727      3.0941570779748631
    80   1      12.272743445135379      3.9592480599485427      1.3260674241234693
    81   1      12.682608627070422      13.552652360401876      4.8622467869857058
    82   1       11.67563421715451       11.82433325914738      6.6303364368303468
    83   1       7.794564250438353      12.514116092265478      4.8622467827255473
    84   1      9.2823811334400403      11.288482904582224      6.6303364310369144
    85   1       6.748931926011462      11.166070490892489        6.63033643512835
    86   1      10.284660359275343      12.809223990457848      4.8622467817109252
    87   1       9.822893577850131      15.465358166591024      4.8622467910677791
    88   1      11.248866135902126      14.450782131126735      6.6303364456896228
    89   1      8.8222002093323564      13.930842429399066      6.6303364433343033
    90   1      12.272743623924692      16.053100355385649      4.8622467932514031
    91   1      11.820505926021557       18.59582533556728      4.8622467969923289
    92   1      10.828957368986028       17.02547527729967      6.6303364516391676
    93   1    0.053164472356477713      20.012348412299723       6.630336454746562
    94   1      2.9092670033225985      11.288482904855487      4.8622467741727231
    95   1      5.3025200852721364      11.824333259347295      4.8622467802211577
    96   1      4.8757520054070342      14.450782131091655      4.8622467887578331
    97   1      6.3094944958966916      13.552652361012903      6.6303364438583632
    98   1      3.9115462287967038      12.809223990519881      6.6303364385283672
    99   1      7.3522571764584619      15.031591755986883      4.8622467906786468
   100   1      6.9367333845737384      17.580176853472043      4.8622467956649063
   101   1      8.3797301988186099      16.526274666641282      6.6303364506182012
   102   1      5.8996294931923856      16.053100354915536      6.6303364501897075
   103   1      9.3792459050338781      18.069611281398426      4.8622467961316795
   104   1      10.367878636892671       19.53003130137143       6.630336454288674
   105   1      7.9175583224994188      19.097513907267128      6.6303364540390097
   106   1     0.37581779473288324      11.166070491559489        4.86224677863345
   107   1      1.4214501192477775      12.514116092514143      6.6303364394824813
   108   1      2.4490860783822823      13.930842429804635      4.8622467864535217
   109   1       2.006616067956279      16.526274667342815      4.8622467936770528
   110   1      3.4497794468877552      15.465358167043407      6.6303364480053011
   111   1     0.97914304589958068      15.031591756506295      6.6303364476280855
   112   1       4.455843238211755      17.025475277481469      4.8622467946749381
   113   1      3.9947645064559336        19.5300313016069      4.8622467973240111
   114   1      5.4473917954337718      18.595825335316494      6.6303364539151248
   115   1      3.0061317742350977      18.069611282026788      6.6303364530784963
   116   1      6.4262786034922694      20.012348411657751      4.8622467977715704
   117   1     0.56361925389858814      17.580176854118388      6.6303364526347872
   118   1       1.544444191736928      19.097513908165553      4.8622467971112773
   119   1      11.675634133087046       8.188015127326981      6.6303364103364251
   120   1      10.730104872937579      10.006174204729048      4.8622467669024907
   121   1      10.828957175571558      2.9868731359721457      6.6303363931382862
   122   1      11.820505717330686       1.416523078932781      4.8622467332181918
   123   1      11.248865989817107      5.5615662775096428      6.6303364004342358
   124   1      8.8222000706513981      6.0815059773659925      6.6303364030768801
   125   1      10.284660243806838      7.2031244128183047       4.862246751540658
   126   1      9.8228934071581193      4.5469902424311801      4.8622467406837737
   127   1      9.2823810666352351      8.7238655039207575      6.6303364163539955
   128   1      6.7489318497768203      8.8462779276438201      6.6303364116065406
   129   1      8.0799522485112227      10.006174204788387      4.8622467670623992
   130   1      7.7945641476132828      7.4982323226459791      4.8622467506574454
   131   1      10.367878423881772     0.48231711289051121      6.6303363897041345
   132   1      7.9175581104356576     0.91483450249341125      6.6303363899970966
   133   1      9.3792456994026931      1.9427371308142749      4.8622467343218991
   134   1      8.3797300100466678      3.4860737419880596       6.630336394404079
   135   1      5.8996293143938461      3.9592480601251765      6.6303363949619403
   136   1       7.352257017498701      4.9807566554902731      4.8622467411598231
   137   1      6.9367331833440398      2.4321715579790215      4.8622467349090801
   138   1      6.3094943734694811       6.459696056759598      6.6303364024756668
   139   1      3.9115461125768376      7.2031244123921638      6.6303364083863272
   140   1       5.302520003338083      8.1880151273683541      4.8622467536713447
   141   1      4.8757518586888393      5.5615662773413828      4.8622467435010375
   142   1       4.356990742113485      10.006174204679677       6.630336423837413
   143   1      1.7068381177635028      10.006174204016302      6.6303364237132296
   144   1       2.909266935202294      8.7238655039634185      4.8622467594831305
   145   1      6.4262783873921459  6.9506622679668292e-10      4.8622467321372635
   146   1      5.4473915867254687      1.4165230793589556      6.6303363901567085
   147   1      3.0061315686702161      1.9427371302468392      6.6303363912691609
   148   1       4.455843044781874      2.9868731359651122      4.8622467361843746
   149   1      3.9947642934794296      0.4823171127755721      4.8622467327520749
   150   1      3.4497792763879005      4.5469902420144734      6.6303363976264347
   151   1     0.97914288655187209      4.9807566549811373      6.6303363981042152
   152   1      2.4490859399473686       6.081505976830794      4.8622467461788323
   153   1      2.0066158792652584      3.4860737412098159      4.8622467374571903
   154   1      1.4214500173816436      7.4982323223704661      6.6303364074444078
   155   1     0.37581771986276918      8.8462779282522561      4.8622467550449997
   156   1       12.68260850378276      6.4596960557505936       4.862246745579327
   157   1    0.053164256271460944                       0      6.6303363890924505
   158   1      1.5444439796424312     0.91483450155688928       4.862246733057118
   159   1     0.56361905254679812      2.4321715571416567      6.6303363918641862
   160   1      12.272743445135381      3.9592480599485427      4.8622467380128604
