(written by ASE)

288 atoms
1 atom types

0.0      22.645532498833678  xlo xhi
0.0      22.457567483801704  ylo yhi
0.0      7.0723586277786685  zlo zhi

Atoms # atomic

     1   1      14.100746083366479      15.227426131850484     0.43753518379096595
     2   1      12.941733980645465      13.806592110048985      2.2056248199424595
     3   1      9.1718539186113492      14.263050955987367     0.43753516777716989
     4   1      10.526893562772292       13.08855166210923      2.2056247875168915
     5   1      8.0581770341974117       12.85799975606248      2.2056248075596945
     6   1      11.596522595154894      14.741777586550988     0.43753517772755535
     7   1      11.382252534483488      17.349559740619487     0.43753519592911871
     8   1       12.73570954867195      16.320514065984497      2.2056248513469732
     9   1      10.276547309234562      15.796202480594747      2.2056248392087747
    10   1      13.875104957289821       17.75852971424543     0.43753520209725127
    11   1      13.604697655188138      20.263047843560575     0.43753521188193994
    12   1      12.489799186315448      18.893590142167525      2.2056248645639149
    13   1       4.163574733862335      14.053720014463583     0.43753516797099196
    14   1      5.5463086902115437      12.811694062595199      2.2056248113176964
    15   1      3.0058410184131379      12.725565803288672      2.2056248387015174
    16   1      6.6823414599468975      14.140646254243146     0.43753516656516817
    17   1      6.4365617563327344      16.757056103716756     0.43753519097965554
    18   1      7.8041279431974644      15.508551765271214      2.2056248348249916
    19   1      5.3017925611493748      15.394801196512384      2.2056248390917292
    20   1      8.9251996992329783      16.924493874630098     0.43753518864321445
    21   1      8.6602088406210473      19.483556982954081     0.43753520152288111
    22   1      10.026214414673914      18.446330873548824      2.2056248578919142
    23   1      7.5613183616673538      18.142592946986735      2.2056248547533825
    24   1      11.100213085782991      19.882719596470995     0.43753520770244669
    25   1      21.849659826546944      13.088551655961478     0.43753512827447966
    26   1      1.6189677176153916      13.806592132907387     0.43753516244229712
    27   1       1.412943300629367      16.320514057892634     0.43753519481169961
    28   1      2.7779798304449961      15.227426130837419       2.205624840891681
    29   1     0.27375635799481751      14.741777579379454      2.2056248351604326
    30   1      3.9292478877791557      16.612186621602518     0.43753519502538546
    31   1      3.6700325654565238       19.18527218074556     0.43753520921331113
    32   1      5.0803406892930347      17.989870682591754      2.2056248582927585
    33   1      2.5523387075648669      17.758529713242112      2.2056248591570413
    34   1      6.1911372198299235      19.369680051447865     0.43753520566966247
    35   1      4.7866589394886647      20.457567482343268      2.2056248679354109
    36   1      16.869074941185357      12.811694063644902     0.43753515433132095
    37   1      19.380943278838934       12.85799975592565     0.43753515085110328
    38   1      19.126894193444812      15.508551765948519     0.43753517801140779
    39   1      20.494620162315691      14.263050957161116      2.2056248252889707
    40   1      18.005107710621392      14.140646255521199      2.2056248235206373
    41   1      21.599313554830015      15.796202481825047     0.43753518256733065
    42   1      21.348980663936469      18.446330872664792     0.43753520121579365
    43   1    0.059486285213695117      17.349559740339298      2.2056248530128082
    44   1      20.247965948491956      16.924493873803591      2.2056248457764394
    45   1      1.1670329375167123      18.893590141122846     0.43753520782307631
    46   1      2.2819314060116782      20.263047841657233      2.2056248689523921
    47   1      22.422979335549002      19.882719595094414      2.2056248648458787
    48   1      14.328607255860888      12.725565814271235     0.43753517918542184
    49   1      15.486340980816189      14.053720014704371      2.2056248250500201
    50   1      16.624558810197012      15.394801197784723     0.43753518208116582
    51   1      16.403106938136755      17.989870684347871     0.43753520131769602
    52   1      17.759328006115286      16.757056104695017      2.2056248479739926
    53   1      15.252014136070224      16.612186624131198      2.2056248517998127
    54   1      18.884084611488042      18.142592947418919     0.43753519795057655
    55   1      19.982975090650552       19.48355698273782      2.2056248586551113
    56   1      17.513903469366635      19.369680052767137      2.2056248626352541
    57   1       14.99279881509238      19.185272182249346      2.2056248660664917
    58   1      16.109425188998451      20.457567483801689      0.4375352109534576
    59   1      22.177990423392682      10.228783747991125     0.43753511804474576
    60   1      20.757655794193926      11.540134864007305      2.2056247919020473
    61   1      21.599313067614723      4.6613650151246544     0.43753505782719132
    62   1      21.849659531581555      7.3690158270726993     0.43753506196686004
    63   1      19.380943020601638      7.5995677459335287     0.43753508913167277
    64   1      20.757655657906202      8.9174326480604194       2.205624761690947
    65   1      20.494619782991204      6.1945165379931488      2.2056247353961762
    66   1      19.558434150042675      10.228783752845784     0.43753512134073591
    67   1      16.995074106484356      10.228783738779919     0.43753511986202764
    68   1      18.232375497910994      11.528961470873243      2.2056247941252165
    69   1      18.232375369758422      8.9286060215259049      2.2056247604344597
    70   1      15.707598889479696      11.499656704989091      2.2056247858658025
    71   1      21.348980059909692      2.0112366292805293     0.43753503880819122
    72   1      18.884084015040767      2.3149745466043976     0.43753504148209849
    73   1      20.247965397013107      3.5330736217838026      2.2056247070508754
    74   1      19.982974470186395     0.97401051513863113      2.2056246943006439
    75   1      19.126893722754154      4.9490157299294779      0.4375350611662942
    76   1      16.624558359158623      5.0627662856137468     0.43753505778309071
    77   1      18.005107347427636      6.3169212373367687      2.2056247300706069
    78   1      17.759327466149344      3.7005113823965483      2.2056247052676556
    79   1      16.869074692125576      7.6458734196498099     0.43753508696321169
    80   1      14.328607044320011      7.7320016789040702     0.43753510231418929
    81   1      15.707598737349011      8.9579107794635995      2.2056247493579977
    82   1      15.486340639723938      6.4038474624161701      2.2056247234255504
    83   1      14.424658052451983      10.228783716069021     0.43753517662725067
    84   1      11.820325429612845       12.07783512969684     0.43753521707667642
    85   1      13.194191556522631      11.396705965881921      2.2056247180117015
    86   1      13.194191446681087      9.0608615607958658      2.2056246754849491
    87   1      16.109424552410637   1.327239651516283e-09     0.43753502769539843
    88   1      17.513902850055668      1.0878874288574389      2.2056246901669692
    89   1       16.40310635142156       2.467696798080826      0.4375350375318558
    90   1      13.875104379582545      2.6990377772382126     0.43753503592201448
    91   1      15.252013611945848      3.8453808604488287      2.2056247020048625
    92   1      14.992798197013744      1.2722953058245032      2.2056246866149598
    93   1      14.100745646824318      5.2301413530497847     0.43753505447181962
    94   1      11.596522211949535      5.7157899120335589     0.43753506505432715
    95   1      12.941733640416258      6.6509753488739136       2.205624719286325
    96   1      12.735709041861025      4.1370534442762139      2.2056247046806532
    97   1      11.820325203233386       8.379732290180959     0.43753515628118633
    98   1      9.4348894187333379       8.917432644812461     0.43753510468573492
    99   1      10.855224174031179      10.228783748534351      2.2056247750133458
   100   1      10.526893296260074      7.3690158327489161      2.2056247211869744
   101   1      9.4348895345230694       11.54013486082313      0.4375351348114293
   102   1      6.9096092524435573       11.52896146951324     0.43753513732104676
   103   1      8.2356679007800366      10.228783754114325      2.2056247778923654
   104   1      13.604697021809066     0.19451965236214708     0.43753502665138694
   105   1      11.100212461650992     0.57484790846299472     0.43753503084243039
   106   1      12.489798575520332      1.5639773601548725      2.2056246883199235
   107   1      11.382251971684722      3.1080077596808797     0.43753504112098446
   108   1       8.925199147581921      3.5330736219768091     0.43753504997027787
   109   1      10.276546814409844      4.6613650133101974      2.2056247146399226
   110   1      10.026213810561472      2.0112366294031805      2.2056246955615988
   111   1      9.1718535279249966      6.1945165364438823     0.43753507804043212
   112   1      6.6823410993868491      6.3169212359461735      0.4375350730509347
   113   1      8.0581767665811679      7.5995677458904902      2.2056247458928797
   114   1      7.8041274742894897      4.9490157288995293      2.2056247179731243
   115   1      6.9096091166969469      8.9286060200972557      0.4375351036245354
   116   1      4.3848324983682758      8.9579107756209968     0.43753509142074254
   117   1      5.6723078572379482      10.228783736761882      2.2056247767193642
   118   1      5.5463084444312249      7.6458734185602912      2.2056247438652168
   119   1      4.3848326297929674      11.499656701047861     0.43753512799124605
   120   1       1.871425330872361      11.396705940226155     0.43753505227311762
   121   1      3.1018918029159077      10.228783739333648      2.2056248398952127
   122   1      8.6602082215519207     0.97401051467302402     0.43753503713854019
   123   1      6.1911366007261774      1.0878874274234767     0.43753503298719298
   124   1      7.5613177661988766      2.3149745456838158      2.2056246981960195
   125   1      6.4365612172788556      3.7005113812101267     0.43753504812749244
   126   1      3.9292473615421835      3.8453808579831987     0.43753504498228091
   127   1      5.3017921095118306      5.0627662842953969      2.2056247146026062
   128   1      5.0803401015346266      2.4676967963233358      2.2056246942789328
   129   1      4.1635743879228109      6.4038474621697272     0.43753506615660825
   130   1      1.6189674044059301       6.650975370904705     0.43753506160911521
   131   1        3.00584078341473      7.7320016677545329      2.2056247614688114
   132   1      2.7779794009744498      5.2301413522482241       2.205624711304627
   133   1      1.8714251744179862      9.0608615379579405     0.43753501004935491
   134   1     0.49755914665770806      12.077835136093439      2.2056248818497175
   135   1     0.49755898655253317      8.3797322968188634      2.2056248203671434
   136   1      4.7866583027340033                       0      2.2056246844371867
   137   1       3.670031947618615      1.2722953044806351      0.4375350295320628
   138   1      1.1670323252191623      1.5639773595195852     0.43753503141192768
   139   1      2.5523381304234833      2.6990377764072702      2.2056246927559831
   140   1      2.2819307717257078     0.19451965077620681      2.2056246835321556
   141   1      1.4129427911272396      4.1370534366426561     0.43753504789788983
   142   1     0.27375595049855445      5.7157899054075578      2.2056247222114038
   143   1    0.059485722045542096      3.1080077599647291      2.2056246980368424
   144   1      22.422978710341194     0.57484790771554739      2.2056246878817785
   145   1      14.100746083366493      15.227426131850418      3.9737144976803092
   146   1      12.941733980645461      13.806592110048983      5.7418041338314803
   147   1      9.1718539186104628      14.263050955988398      3.9737144816665411
   148   1      10.526893562772285      13.088551662109202      5.7418041014034307
   149   1      8.0581770341973797      12.857999756062428       5.741804121448788
   150   1      11.596522595154905      14.741777586550562      3.9737144916168869
   151   1       11.38225253448346      17.349559740619451      3.9737145098184614
   152   1      12.735709548671952      16.320514065984501      5.7418041652362248
   153   1      10.276547309234564      15.796202480594753      5.7418041530979425
   154   1      13.875104957289834      17.758529714245448      3.9737145159865901
   155   1       13.60469765518814      20.263047843560575      3.9737145257712712
   156   1      12.489799186315437      18.893590142167533      5.7418041784532248
   157   1      4.1635747338622764      14.053720014463597      3.9737144818602563
   158   1      5.5463086902114851      12.811694062595059      5.7418041252070324
   159   1      3.0058410184132822      12.725565803288827      5.7418041525908574
   160   1      6.6823414599466311      14.140646254243288      3.9737144804545714
   161   1      6.4365617563327646      16.757056103716696      3.9737145048690152
   162   1      7.8041279431974688      15.508551765271232      5.7418041487146718
   163   1      5.3017925611493473      15.394801196512329      5.7418041529811399
   164   1      8.9251996992328486      16.924493874630279      3.9737145025325535
   165   1      8.6602088406210243       19.48355698295412      3.9737145154121847
   166   1        10.0262144146739      18.446330873548849      5.7418041717812365
   167   1      7.5613183616673529      18.142592946986767       5.741804168642771
   168   1      11.100213085782975      19.882719596471006      3.9737145215917749
   169   1      21.849659826546965      13.088551655961522       3.973714442163113
   170   1      1.6189677176153801      13.806592132907404      3.9737144763315535
   171   1      1.4129433006293801       16.32051405789262      3.9737145087010135
   172   1      2.7779798304449925      15.227426130837443      5.7418041547810441
   173   1     0.27375635799480669      14.741777579379546      5.7418041490497833
   174   1      3.9292478877791788       16.61218662160249      3.9737145089147186
   175   1      3.6700325654565162      19.185272180745567      3.9737145231026498
   176   1      5.0803406892930294      17.989870682591761      5.7418041721820776
   177   1      2.5523387075648634      17.758529713242094      5.7418041730463578
   178   1      6.1911372198299279      19.369680051447833      3.9737145195589867
   179   1      4.7866589394886772      20.457567482343258      5.7418041818247367
   180   1      16.869074941185609       12.81169406364539      3.9737144682206549
   181   1      19.380943278839059      12.857999755925793       3.973714464740369
   182   1      19.126894193444794      15.508551765948432      3.9737144919008243
   183   1      20.494620162315915      14.263050957160848      5.7418041391783934
   184   1      18.005107710621456      14.140646255521169      5.7418041374102176
   185   1      21.599313554830008      15.796202481825025      3.9737144964566156
   186   1      21.348980663936466      18.446330872664806      3.9737145151051263
   187   1    0.059486285213705539      17.349559740339306      5.7418041669021216
   188   1      20.247965948492002      16.924493873803534      5.7418041596657394
   189   1      1.1670329375167066      18.893590141122868      3.9737145217124099
   190   1      2.2819314060116791      20.263047841657226      5.7418041828417392
   191   1      22.422979335549005      19.882719595094414      5.7418041787352294
   192   1      14.328607255860332      12.725565814270649      3.9737144930747652
   193   1      15.486340980816202       14.05372001470438       5.741804138939079
   194   1      16.624558810197112      15.394801197784906      3.9737144959705182
   195   1      16.403106938136755      17.989870684347903      3.9737145152070243
   196   1      17.759328006115286      16.757056104695039      5.7418041618633957
   197   1      15.252014136070217      16.612186624131226      5.7418041656891443
   198   1      18.884084611488014       18.14259294741888      3.9737145118399297
   199   1      19.982975090650548      19.483556982737802       5.741804172544426
   200   1      17.513903469366639      19.369680052767148      5.7418041765245933
   201   1       14.99279881509238      19.185272182249346      5.7418041799558237
   202   1      16.109425188998458      20.457567483801704      3.9737145248427845
   203   1      22.177990423392696      10.228783747991125      3.9737144319348783
   204   1      20.757655794193774      11.540134864007422      5.7418041057913074
   205   1      21.599313067614698      4.6613650151246766      3.9737143717164884
   206   1      21.849659531581583      7.3690158270726513      3.9737143758554647
   207   1      19.380943020601777      7.5995677459333733      3.9737144030209497
   208   1      20.757655657906049       8.917432648060311      5.7418040755802142
   209   1      20.494619782991421      6.1945165379934188      5.7418040492855908
   210   1      19.558434150042537      10.228783752845768      3.9737144352300313
   211   1      16.995074106483447      10.228783738779914      3.9737144337513604
   212   1      18.232375497910979      11.528961470873252      5.7418041080142377
   213   1      18.232375369758397      8.9286060215258978      5.7418040743234844
   214   1      15.707598889479698      11.499656704989093      5.7418040997538524
   215   1      21.348980059909707      2.0112366292805648      3.9737143526975296
   216   1      18.884084015040752      2.3149745466044802      3.9737143553714516
   217   1      20.247965397013132      3.5330736217838452       5.741804020940199
   218   1      19.982974470186406     0.97401051513863646       5.741804008189912
   219   1      19.126893722754115      4.9490157299295534      3.9737143750557178
   220   1      16.624558359158716      5.0627662856135505       3.973714371672441
   221   1      18.005107347427696      6.3169212373368016      5.7418040439601716
   222   1       17.75932746614933      3.7005113823965323       5.741804019157084
   223   1        16.8690746921258      7.6458734196493374      3.9737144008525442
   224   1      14.328607044319451      7.7320016789046715      3.9737144162035305
   225   1         15.707598737349      8.9579107794635906       5.741804063246069
   226   1       15.48634063972395      6.4038474624161745      5.7418040373145942
   227   1      14.424658052446222      10.228783716068996      3.9737144905165822
   228   1      11.820325429615448      12.077835129692124       3.973714530965998
   229   1      13.194191556522613      11.396705965881932      5.7418040319048496
   230   1      13.194191446681067      9.0608615607958498        5.74180398937819
   231   1      16.109424552410623  1.3272227761263447e-09      3.9737143415847198
   232   1      17.513902850055665       1.087887428857429      5.7418040040562932
   233   1      16.403106351421574      2.4676967980808073      3.9737143514211875
   234   1      13.875104379582552      2.6990377772382126      3.9737143498113463
   235   1      15.252013611945848      3.8453808604488198       5.741804015894199
   236   1      14.992798197013752       1.272295305824497      5.7418040005042954
   237   1      14.100745646824327      5.2301413530498557      3.9737143683611618
   238   1      11.596522211949559      5.7157899120339879      3.9737143789436566
   239   1      12.941733640416262      6.6509753488739189      5.7418040331753355
   240   1      12.735709041861021      4.1370534442762077      5.7418040185698986
   241   1       11.82032520323606       8.379732290185812       3.973714470170516
   242   1      9.4348894187339916      8.9174326448129282      3.9737144185750464
   243   1       10.85522417403118      10.228783748534347      5.7418040889058757
   244   1      10.526893296260068      7.3690158327489375      5.7418040350734234
   245   1      9.4348895345237214      11.540134860822675      3.9737144487007368
   246   1      6.9096092524436363      11.528961469513222      3.9737144512102898
   247   1      8.2356679007800739      10.228783754114319      5.7418040917815407
   248   1      13.604697021809066     0.19451965236214175      3.9737143405407194
   249   1      11.100212461650978     0.57484790846300093      3.9737143447317589
   250   1      12.489798575520332      1.5639773601548619      5.7418040022092347
   251   1      11.382251971684687       3.108007759680913      3.9737143550103164
   252   1      8.9251991475817878      3.5330736219766008       3.973714363859612
   253   1      10.276546814409855      4.6613650133101894      5.7418040285290859
   254   1      10.026213810561476      2.0112366294031752      5.7418040094509371
   255   1      9.1718535279240836      6.1945165364428068       3.973714391929799
   256   1      6.6823410993865737      6.3169212359460465      3.9737143869403315
   257   1      8.0581767665811359        7.59956774589054      5.7418040597819582
   258   1      7.8041274742894977      4.9490157288995187      5.7418040318628094
   259   1      6.9096091166970233       8.928606020097293      3.9737144175137864
   260   1      4.3848324983682936      8.9579107756209844      3.9737144053097566
   261   1      5.6723078572381782      10.228783736761891      5.7418040906086745
   262   1      5.5463084444311646        7.64587341856042      5.7418040577545604
   263   1      4.3848326297929869      11.499656701047869      3.9737144418802468
   264   1       1.871425330872369      11.396705940226154       3.973714366163406
   265   1      3.1018918029173617      10.228783739333654       5.741804153784531
   266   1      8.6602082215518941     0.97401051467298849      3.9737143510278647
   267   1      6.1911366007261863      1.0878874274235253      3.9737143468765255
   268   1      7.5613177661988775      2.3149745456837949      5.7418040120854243
   269   1      6.4365612172788857      3.7005113812101977      3.9737143620168514
   270   1      3.9292473615422057      3.8453808579832076      3.9737143588716162
   271   1      5.3017921095118039      5.0627662842954484      5.7418040284920142
   272   1      5.0803401015346212      2.4676967963233389      5.7418040081682591
   273   1      4.1635743879227469      6.4038474621697006      3.9737143800458705
   274   1      1.6189674044059255      6.6509753709046988       3.973714375498369
   275   1      3.0058407834148735       7.732001667754389      5.7418040753581572
   276   1      2.7779794009744427       5.230141352248201      5.7418040251939795
   277   1      1.8714251744179971      9.0608615379579405      3.9737143239396775
   278   1     0.49755914665705403      12.077835136094626      5.7418041957390509
   279   1     0.49755898655185765      8.3797322968176289      5.7418041342564772
   280   1      4.7866583027340042  1.7763567261048734e-15      5.7418039983264979
   281   1      3.6700319476186101      1.2722953044806466      3.9737143434213968
   282   1      1.1670323252191703      1.5639773595195952      3.9737143453012527
   283   1      2.5523381304234825      2.6990377764072702      5.7418040066453147
   284   1      2.2819307717257113      0.1945196507762095      5.7418039974214858
   285   1      1.4129427911272403      4.1370534366426641      3.9737143617871986
   286   1      0.2737559504985515      5.7157899054074504      5.7418040361007447
   287   1    0.059485722045546516      3.1080077599647207      5.7418040119261828
   288   1      22.422978710341205     0.57484790771554639      5.7418040017710945
