(written by ASE)

144 atoms
1 atom types

0.0      11.177922746446793  xlo xhi
0.0      22.546571627413748  ylo yhi
0.0      7.0723586277786685  zlo zhi

Atoms # atomic

     1   1      1.6395648970118568      14.208486269791932      2.2201586942331883
     2   1      1.0536864900746439      12.431563892389564     0.45206906202066893
     3   1      2.2377637303824263      15.980298010508841     0.45206903162258361
     4   1      8.2952049069764104      11.862048436263441      2.2201588571778914
     5   1      10.597899114288495      13.012499494794923      2.2201587142862849
     6   1      9.4939762254554747       15.38432589886887      2.2201586937879059
     7   1      11.159720042151276      14.792660018774473     0.45206903421101952
     8   1      8.8835836439986657      13.645779916252721     0.45206901974018127
     9   1     0.57402863800040371      16.565276370005684      2.2201586877362192
    10   1      10.665537422795833      18.917671508637532      2.2201586817269297
    11   1      1.1792240610839808      18.325073601329763     0.45206902561849666
    12   1      10.088205687753549      17.148116887468277     0.45206902785838388
    13   1      1.7318283504572216      20.031903052665172      2.2201586810005374
    14   1    0.074495269586169852      20.546571627413741     0.45206902361758744
    15   1      5.0089377343192387      13.012499495479537      2.2201587083788947
    16   1      6.6426478806171012      12.431563881403973     0.45206901429783153
    17   1      7.2285262718909511      14.208486270441224        2.22015870078484
    18   1      6.1629900126827968      16.565276369322952      2.2201586846080716
    19   1      7.8267251031563392      15.980298010841333     0.45206903304648616
    20   1      5.5707586682330366      14.792660020415029     0.45206903764202216
    21   1      8.4363710107604817      17.755894825489221      2.2201586830279973
    22   1      7.3207897228964711      20.031903052649668      2.2201586806545914
    23   1      9.0088595082454503      19.494564099739513     0.45206902452267345
    24   1      6.7681854348088679      18.325073600951441      0.4520690263529531
    25   1      2.7062435412974266      11.862048443377647       2.220158639191665
    26   1      3.2946222734179007      13.645779916942656     0.45206905075863835
    27   1      3.9050148524722896      15.384325897824615      2.2201586893634153
    28   1      2.8474096377104043      17.755894824737076      2.2201586836557157
    29   1      4.4992443143699115      17.148116886311755     0.45206902944861271
    30   1      5.0765760490333225       18.91767150754184      2.2201586814475154
    31   1      5.6634566416967056      20.546571626668474     0.45206902362257878
    32   1      3.4198981348628097       19.49456409851468     0.45206902451134889
    33   1      10.019731715076547      9.1153553474654245     0.45206905249711327
    34   1      10.597904644565592      7.5340725420105041      2.2201587475737585
    35   1      10.019727793728592      11.431216792559306     0.45206901864766585
    36   1      9.0088701355521419      1.0520075476643109      0.4520691008950628
    37   1      10.665547884664916      1.6289000982762758      2.2201587578674551
    38   1      10.088215327874934      3.3984547879432867     0.45206909753940405
    39   1      7.8267338923312977      4.5662738098333371     0.45206909714309496
    40   1      9.4939844273642056      5.1622459712700159      2.2201587523272575
    41   1      8.4363810715663234      2.7906769054039966      2.2201587557174092
    42   1       8.883590079600765      6.9007920913028364      0.4520690688062643
    43   1      6.6426527264457524       8.115007242532954     0.45206905300857447
    44   1      8.2952094137841144      8.6845246430101124      2.2201588755396067
    45   1      7.2285333324140781      6.3380857798263648      2.2201587493169779
    46   1      7.7991123535997673      10.273286195414034      0.4520688617608869
    47   1      6.0163463613053132      10.273285829060159      2.2201587604472799
    48   1      5.6634674725740366  7.7916073593080111e-10     0.45206910161512531
    49   1      7.3208004638309463     0.51466864643872956      2.2201587581195827
    50   1      6.7681957246358655      2.2214981062332986     0.45206910041671211
    51   1      4.4992539554039332      3.3984547886725096     0.45206909912496096
    52   1      6.1629992556706634      3.9812953447129189      2.2201587515583654
    53   1      5.0765865115725699      1.6289000989745013      2.2201587576113782
    54   1       5.570766275573364       5.753911663332044     0.45206909519604183
    55   1      3.2946287051784795      6.9007920917462737     0.45206909981356319
    56   1      5.0089432768322109      7.5340725433870954      2.2201587416623569
    57   1      3.9050230551402709      5.1622459711607451      2.2201587478900691
    58   1      4.4307703407798256      9.1153553485650392     0.45206909452943483
    59   1      2.2101509805995341      10.273286164270111      0.4520691712104985
    60   1      4.4307664172634391      11.431216790539237     0.45206906068457298
    61   1       2.706248033516947      8.6845246503767797      2.2201586575492747
    62   1      3.4199087620883586      1.0520075485433553      0.4520691008590238
    63   1       1.179234351812039      2.2214981065422332     0.45206909964044067
    64   1      2.8474196974105106      2.7906769062720524      2.2201587563139089
    65   1      1.7318390913139645     0.51466864633047649      2.2201587584069116
    66   1       2.237772518132104      4.5662738097383357     0.45206909569682197
    67   1      11.159727647427388      5.7539116607814851     0.45206909176338661
    68   1      1.6395719601613652      6.3380857779222586      2.2201587427545229
    69   1      0.5740378829642101      3.9812953449026995      2.2201587546696633
    70   1      1.0536913671301573      8.1150072511074303     0.45206910072747236
    71   1     0.42738498715910311      10.273285830516567      2.2201587064377715
    72   1    0.074506100285958332                       0      0.4520691015532452
    73   1      1.6395648970118606      14.208486269791925      5.7563380081225182
    74   1       1.053686490074651      12.431563892389567      3.9882483759099845
    75   1      2.2377637303824294      15.980298010508838      3.9882483455119249
    76   1      8.2952049069764442      11.862048436263411       5.756338171067223
    77   1      10.597899114288509      13.012499494794897      5.7563380281756178
    78   1      9.4939762254554765      15.384325898868868      5.7563380076772432
    79   1      11.159720042151275      14.792660018774479      3.9882483481003645
    80   1      8.8835836439986657      13.645779916252712      3.9882483336295338
    81   1     0.57402863800040371      16.565276370005691      5.7563380016255534
    82   1      10.665537422795833       18.91767150863754      5.7563379956162626
    83   1      1.1792240610839768       18.32507360132977       3.988248339507825
    84   1      10.088205687753547      17.148116887468277      3.9882483417477199
    85   1      1.7318283504572241      20.031903052665164      5.7563379948898703
    86   1     0.07449526958616709      20.546571627413748      3.9882483375069144
    87   1      5.0089377343192192      13.012499495479537      5.7563380222682312
    88   1      6.6426478806170985      12.431563881403957      3.9882483281871961
    89   1      7.2285262718909449      14.208486270441229      5.7563380146741689
    90   1      6.1629900126827959      16.565276369322952      5.7563379984974103
    91   1      7.8267251031563392      15.980298010841329      3.9882483469358245
    92   1      5.5707586682330374      14.792660020415024       3.988248351531352
    93   1      8.4363710107604835      17.755894825489229      5.7563379969173392
    94   1      7.3207897228964622      20.031903052649675      5.7563379945439204
    95   1      9.0088595082454557      19.494564099739499      3.9882483384120135
    96   1      6.7681854348088688      18.325073600951434      3.9882483402422926
    97   1      2.7062435412974146      11.862048443377642      5.7563379530809966
    98   1      3.2946222734179007      13.645779916942656      3.9882483646479647
    99   1      3.9050148524722901      15.384325897824622       5.756338003252754
   100   1      2.8474096377104057      17.755894824737076      5.7563379975450397
   101   1      4.4992443143699123      17.148116886311762       3.988248343337951
   102   1      5.0765760490333198      18.917671507541854       5.756337995336847
   103   1      5.6634566416966994      20.546571626668474       3.988248337511898
   104   1      3.4198981348628053      19.494564098514694      3.9882483384006728
   105   1      10.019731715076555      9.1153553474654174      3.9882483663864519
   106   1      10.597904644565583      7.5340725420104979      5.7563380614630901
   107   1      10.019727793728595      11.431216792559312      3.9882483325369664
   108   1      9.0088701355521437      1.0520075476643198       3.988248414784402
   109   1      10.665547884664923      1.6289000982762794      5.7563380717567929
   110   1      10.088215327874934      3.3984547879432916      3.9882484114287351
   111   1      7.8267338923312986      4.5662738098333442      3.9882484110324365
   112   1      9.4939844273642127      5.1622459712700142      5.7563380662165935
   113   1      8.4363810715663288      2.7906769054039966      5.7563380696067448
   114   1      8.8835900796007596      6.9007920913028427       3.988248382695597
   115   1      6.6426527264457471      8.1150072425329629      3.9882483668978983
   116   1       8.295209413784109      8.6845246430101284      5.7563381894289485
   117   1      7.2285333324140817      6.3380857798263692      5.7563380632063179
   118   1      7.7991123535997771      10.273286195414039      3.9882481756502042
   119   1      6.0163463613053176      10.273285829060159      5.7563380743366022
   120   1      5.6634674725740339  7.7915895957417729e-10      3.9882484155044553
   121   1      7.3208004638309436     0.51466864643872867      5.7563380720089095
   122   1      6.7681957246358673      2.2214981062332999      3.9882484143060495
   123   1      4.4992539554039359      3.3984547886725114      3.9882484130142926
   124   1      6.1629992556706599      3.9812953447129207      5.7563380654476957
   125   1      5.0765865115725672      1.6289000989745004      5.7563380715007098
   126   1      5.5707662755733685      5.7539116633320511      3.9882484090853825
   127   1      3.2946287051784826       6.900792091746272      3.9882484137029093
   128   1      5.0089432768322162      7.5340725433871079      5.7563380555516872
   129   1       3.905023055140266      5.1622459711607416      5.7563380617793998
   130   1      4.4307703407798229      9.1153553485650374      3.9882484084187566
   131   1      2.2101509805995256       10.27328616427012      3.9882484850998301
   132   1      4.4307664172634293      11.431216790539237      3.9882483745739075
   133   1      2.7062480335169603      8.6845246503767921      5.7563379714386143
   134   1      3.4199087620883555      1.0520075485433518      3.9882484147483535
   135   1      1.1792343518120363      2.2214981065422323      3.9882484135297704
   136   1      2.8474196974105097      2.7906769062720524      5.7563380702032383
   137   1      1.7318390913139685     0.51466864633047926      5.7563380722962494
   138   1      2.2377725181321013      4.5662738097383322      3.9882484095861539
   139   1      11.159727647427387      5.7539116607814913      3.9882484056527128
   140   1       1.639571960161359      6.3380857779222648      5.7563380566438545
   141   1     0.57403788296421299      3.9812953449027013       5.756338068558998
   142   1      1.0536913671301507      8.1150072511074267        3.98824841461682
   143   1     0.42738498715909701      10.273285830516567      5.7563380203271164
   144   1    0.074506100285960289  8.8817831187910156e-16      3.9882484154425817
