(written by ASE)

240 atoms
1 atom types

0.0      19.039428735234662  xlo xhi
0.0      22.243189439005796  ylo yhi
0.0      7.0723586277786685  zlo zhi

Atoms # atomic

     1   1      6.0989435246147377      12.279279693021905      1.3260672457200753
     2   1      5.3063160623662835      10.121594719502831      3.0941569026653455
     3   1      6.8429749560384652      13.861970723648547      3.0941569026648166
     4   1      1.6759768815677833      10.121594719502871       1.326067245719857
     5   1      3.8729964887967561       11.28915987295586      1.3260672457199041
     6   1       2.826317876791685      13.544316791101487      1.3260672457200722
     7   1      4.4902279722164042      12.871368827924773        3.09415690266475
     8   1      2.1797962820698222      11.740071990263555      3.0941569026646367
     9   1      5.1679399355305469      14.597566513923766      1.3260672457200684
    10   1      4.2465683100731022      16.976344587093052      1.3260672457200606
    11   1      5.8906146333297995      16.264200937624654      3.0941569026647393
    12   1      3.5300241875945084      15.263784070173232      3.0941569026647291
    13   1      6.6014041615288876      17.950131175433985      1.3260672457200591
    14   1      5.6337531068278501      20.243189439005775      1.3260672457200771
    15   1      4.9384781045461708      18.672393801658426      3.0941569026647326
    16   1      17.331303321354049      11.439946218557026      1.3260672457198655
    17   1      18.986325979919126      10.121594719502905      3.0941569026645261
    18   1      16.511797941669407      10.121594719502887      3.0941569026647349
    19   1     0.56580503397558835      12.337036395235994      1.3260672457201566
    20   1      18.681677269028906      14.806768305178347      1.3260672457200908
    21   1      1.2299218212520577      14.141138336217844      3.0941569026646714
    22   1      18.020496932379597      13.028183991598915      3.0941569026647149
    23   1      1.9179278708743459      15.935843089643097      1.3260672457200693
    24   1      0.9858659764364256      18.343879825733296      1.3260672457200582
    25   1      2.6285343257006728      17.674236408680571      3.0941569026647326
    26   1     0.31787788610093626      16.578463805423063      3.0941569026647127
    27   1      3.2982802061532714       19.37671750376051      1.3260672457200675
    28   1      1.6553115232041495      19.950408880382358      3.0941569026647224
    29   1      14.826030429983827      10.121594719502909      1.3260672457205072
    30   1      14.009942339833765      12.871368827924918       1.326067245720072
    31   1      15.618657892231912      12.279279693021481      3.0941569026647473
    32   1      13.392710856413537      11.289159872956034      3.0941569026646132
    33   1      16.362689323655776      13.861970723648565      1.3260672457201161
    34   1      15.410329000947112      16.264200937624658      1.3260672457200573
    35   1      17.059328201552404      15.522082250426953      3.0941569026647331
    36   1      14.687654303147879      14.597566513923734      3.0941569026647375
    37   1      17.754669895554894      17.265777365458945        1.32606724572005
    38   1      16.773703932989324      19.617423085456391      1.3260672457200646
    39   1      18.414022220525201      18.985731542681563      3.0941569026647184
    40   1      16.121118529146205      17.950131175434013      3.0941569026647282
    41   1      9.4666116123013335      10.121594719502923      1.3260672457199092
    42   1      11.195691249184781      10.121594719502905      3.0941569026645137
    43   1      11.699510649686925      11.740071990263999      1.3260672457199854
    44   1      10.749636188869395      14.141138336218004      1.3260672457200204
    45   1      12.346032244408915      13.544316791101664      3.0941569026647335
    46   1      10.085519401592967      12.337036395236078      3.0941569026647708
    47   1      13.049738555211817      15.263784070173307       1.326067245720064
    48   1      12.148248693317981      17.674236408680628        1.32606724572007
    49   1      13.766282677690421      16.976344587093074      3.0941569026647229
    50   1      11.437642238491623      15.935843089643187      3.0941569026647313
    51   1      14.458192472163493      18.672393801658455       1.326067245720064
    52   1      15.153467474445192        20.2431894390058      3.0941569026647331
    53   1      12.817994573770591      19.376717503760574      3.0941569026647224
    54   1      6.9920835740508123      10.121594719502831      1.3260672457200748
    55   1      7.8115889537368473      11.439946218556999       3.094156902664448
    56   1       8.500782564762444      13.028183991599171        1.32606724572005
    57   1      7.5396138339350767      15.522082250426891      1.3260672457200586
    58   1      9.1619629014116111      14.806768305178355      3.0941569026647673
    59   1      9.8375922537182472      16.578463805423102      1.3260672457200464
    60   1      8.8943078529078612      18.985731542681613      1.3260672457200384
    61   1      10.505580344053726      18.343879825733396      3.0941569026647251
    62   1      8.2349555279375846      17.265777365458966      3.0941569026647229
    63   1      11.175025890821471      19.950408880382422      1.3260672457200495
    64   1      7.2539895653720095      19.617423085456402      3.0941569026647229
    65   1      18.020496932379359      7.2150054474068979      3.0941569026646958
    66   1      18.681677269028569      5.4364211338274258      1.3260672457200668
    67   1      17.331303321353897      8.8032432204487492      1.3260672457198395
    68   1      18.414022220524743      1.2574578963241878      3.0941569026646771
    69   1      16.121118529145768      2.2930582635717887       3.094156902664682
    70   1      17.754669895554464      2.9774120735468248      1.3260672457200124
    71   1      16.773703932988859     0.62576635354939913      1.3260672457200045
    72   1      17.059328201552042      4.7211071885788565      3.0941569026646958
    73   1      14.687654303147577      5.6456229250821082       3.094156902664706
    74   1      16.362689323655506      6.3812187153572326      1.3260672457200842
    75   1      15.410329000946735      3.9789885013811612      1.3260672457200158
    76   1      15.618657892231724      7.9639097459843811       3.094156902664726
    77   1      13.392710856413391      8.9540295660497868      3.0941569026645759
    78   1      14.009942339833559      7.3718206110809072      1.3260672457200464
    79   1      15.153467474444716  1.8651746946923771e-14      3.0941569026646727
    80   1      12.817994573770148     0.86647193524529609      3.0941569026646687
    81   1      14.458192472163054      1.5707956373473753      1.3260672457200076
    82   1      13.766282677690024      3.2668448519127677      3.0941569026646816
    83   1      11.437642238491268      4.3073463493626685      3.0941569026646891
    84   1        13.0497385552115       4.979405368832535      1.3260672457200195
    85   1      12.148248693317568       2.568953030325237      1.3260672457200031
    86   1      12.346032244408661      6.6988726479041603      3.0941569026647091
    87   1      10.085519401592785      7.9061530437697582      3.0941569026647757
    88   1      11.699510649686736      8.5031174487417545      1.3260672457199734
    89   1      10.749636188869106      6.1020511027878124       1.326067245719984
    90   1      11.175025890821026     0.29278055862344843       1.326067245720012
    91   1      10.505580344053314      1.8993096132724938      3.0941569026646727
    92   1      8.2349555279371494      2.9774120735468479      3.0941569026646731
    93   1      9.8375922537178528      3.6647256335827274      1.3260672457200022
    94   1      8.8943078529074135       1.257457896324218      1.3260672457200191
    95   1      9.1619629014112842      5.4364211338274631      3.0941569026647358
    96   1       6.842974956038173      6.3812187153572131      3.0941569026647877
    97   1      8.5007825647622184      7.2150054474066261      1.3260672457200293
    98   1       7.539613833934709      4.7211071885789098      1.3260672457200227
    99   1      7.8115889537366856      8.8032432204487456      3.0941569026644462
   100   1      6.0989435246145369      7.9639097459838935      1.3260672457200515
   101   1      7.2539895653715272     0.62576635354939825      3.0941569026646727
   102   1      4.9384781045457116      1.5707956373473291      3.0941569026646749
   103   1      6.6014041615284444       2.293058263571798      1.3260672457200104
   104   1      5.6337531068273945  9.7699625042448284e-15      1.3260672457199925
   105   1      5.8906146333293883      3.9789885013811221        3.09415690266469
   106   1      3.5300241875941363      4.9794053688324995      3.0941569026646896
   107   1      5.1679399355302111      5.6456229250819874      1.3260672457200369
   108   1      4.2465683100726741      3.2668448519127056      1.3260672457200111
   109   1      4.4902279722161573      7.3718206110809472      3.0941569026647273
   110   1      2.1797962820696117      8.5031174487421239      3.0941569026646234
   111   1      3.8729964887965824      8.9540295660498579      1.3260672457198994
   112   1      2.8263178767913968      6.6988726479042411      1.3260672457200422
   113   1       1.655311523203685     0.29278055862339336      3.0941569026646749
   114   1      3.2982802061528047     0.86647193524524024      1.3260672457199996
   115   1      2.6285343257002265      2.5689530303251757      3.0941569026646722
   116   1     0.31787788610052276      3.6647256335826937      3.0941569026646647
   117   1      1.9179278708739482      4.3073463493626543      1.3260672457200249
   118   1     0.98586597643596552      1.8993096132724432        1.32606724572001
   119   1      1.2299218212517415      6.1020511027879101      3.0941569026646354
   120   1     0.56580503397538173      7.9061530437697831      1.3260672457201237
   121   1      6.0989435246145733      12.279279693021383      4.8622465596093543
   122   1      5.3063160623665278      10.121594719502816      6.6303362165533954
   123   1      6.8429749560384687      13.861970723648543      6.6303362165539506
   124   1       1.675976881567393      10.121594719502873      4.8622465596095514
   125   1      3.8729964887961463      11.289159872955992      4.8622465596095221
   126   1      2.8263178767915837      13.544316791101636      4.8622465596093667
   127   1      4.4902279722164558      12.871368827924874      6.6303362165540154
   128   1       2.179796282069562      11.740071990263978      6.6303362165541175
   129   1      5.1679399355305602      14.597566513923677      4.8622465596093756
   130   1      4.2465683100731066      16.976344587093035       4.862246559609396
   131   1      5.8906146333297942      16.264200937624651      6.6303362165540456
   132   1      3.5300241875945084      15.263784070173251      6.6303362165540518
   133   1      6.6014041615288868      17.950131175434013      4.8622465596093924
   134   1      5.6337531068278501      20.243189439005786        4.86224655960938
   135   1      4.9384781045461672      18.672393801658441      6.6303362165540589
   136   1      17.331303321354177      11.439946218557012      4.8622465596095488
   137   1      18.986325979918711      10.121594719502912      6.6303362165542179
   138   1      16.511797941668334      10.121594719502912      6.6303362165540047
   139   1     0.56580503397565207      12.337036395236055      4.8622465596092708
   140   1       18.68167726902897      14.806768305178323      4.8622465596093472
   141   1      1.2299218212520706      14.141138336217953      6.6303362165541007
   142   1      18.020496932379793      13.028183991599079      6.6303362165540438
   143   1      1.9179278708743184       15.93584308964313        4.86224655960938
   144   1     0.98586597643641594      18.343879825733321       4.862246559609396
   145   1      2.6285343257006732      17.674236408680571      6.6303362165540571
   146   1     0.31787788610093248      16.578463805423063      6.6303362165540722
   147   1      3.2982802061532674      19.376717503760517      4.8622465596093924
   148   1      1.6553115232041617      19.950408880382355      6.6303362165540687
   149   1      14.826030429983632      10.121594719502887      4.8622465596088951
   150   1       14.00994233983371      12.871368827924844      4.8622465596093569
   151   1      15.618657892232036      12.279279693021877      6.6303362165540118
   152   1      13.392710856413991       11.28915987295594      6.6303362165541415
   153   1      16.362689323655793      13.861970723648577      4.8622465596093187
   154   1       15.41032900094711      16.264200937624679      4.8622465596093898
   155   1      17.059328201552418      15.522082250426882      6.6303362165540438
   156   1       14.68765430314785      14.597566513923796      6.6303362165540332
   157   1      17.754669895554912      17.265777365458948      4.8622465596094013
   158   1      16.773703932989335      19.617423085456377      4.8622465596093924
   159   1      18.414022220525197      18.985731542681577      6.6303362165540705
   160   1      16.121118529146212      17.950131175433995       6.630336216554058
   161   1      9.4666116123018575      10.121594719502923      4.8622465596095008
   162   1      11.195691249185066      10.121594719502905      6.6303362165542286
   163   1      11.699510649687094       11.74007199026363      4.8622465596094351
   164   1      10.749636188869356       14.14113833621786      4.8622465596094138
   165   1      12.346032244408979      13.544316791101563      6.6303362165540323
   166   1      10.085519401592915      12.337036395236039      6.6303362165539879
   167   1        13.0497385552118      15.263784070173289        4.86224655960938
   168   1      12.148248693317987      17.674236408680628      4.8622465596093818
   169   1      13.766282677690405      16.976344587093095      6.6303362165540607
   170   1      11.437642238491652      15.935843089643154      6.6303362165540491
   171   1      14.458192472163491      18.672393801658455       4.862246559609388
   172   1      15.153467474445193      20.243189439005782      6.6303362165540554
   173   1      12.817994573770603       19.37671750376056      6.6303362165540625
   174   1      6.9920835740522804      10.121594719502845      4.8622465596093329
   175   1      7.8115889537367504      11.439946218557008      6.6303362165543041
   176   1      8.5007825647622663      13.028183991598834      4.8622465596093756
   177   1      7.5396138339350847      15.522082250426939      4.8622465596093871
   178   1      9.1619629014115862      14.806768305178371      6.6303362165540056
   179   1      9.8375922537182579      16.578463805423105      4.8622465596094004
   180   1       8.894307852907863      18.985731542681609      4.8622465596094138
   181   1      10.505580344053755       18.34387982573336      6.6303362165540589
   182   1      8.2349555279375704      17.265777365458973      6.6303362165540589
   183   1      11.175025890821482      19.950408880382412      4.8622465596094031
   184   1      7.2539895653719766      19.617423085456409       6.630336216554066
   185   1      18.020496932379547      7.2150054474066829      6.6303362165540243
   186   1      18.681677269028626      5.4364211338274488      4.8622465596093054
   187   1      17.331303321354035      8.8032432204487776      4.8622465596095568
   188   1      18.414022220524735      1.2574578963241914      6.6303362165540101
   189   1      16.121118529145782      2.2930582635718029      6.6303362165540038
   190   1      17.754669895554485      2.9774120735468368      4.8622465596093472
   191   1      16.773703932988859     0.62576635354940002      4.8622465596093454
   192   1      17.059328201552066      4.7211071885789062      6.6303362165540083
   193   1      14.687654303147568      5.6456229250820478      6.6303362165539959
   194   1      16.362689323655527      6.3812187153572433       4.862246559609293
   195   1      15.410329000946737       3.978988501381147      4.8622465596093454
   196   1      15.618657892231859      7.9639097459840018      6.6303362165539905
   197   1      13.392710856413848      8.9540295660498899      6.6303362165541477
   198   1      14.009942339833506      7.3718206110809872      4.8622465596093338
   199   1      15.153467474444708  2.0428103658827862e-14      6.6303362165540127
   200   1      12.817994573770136     0.86647193524528288      6.6303362165540118
   201   1      14.458192472163045       1.570795637347363      4.8622465596093418
   202   1      13.766282677690024      3.2668448519127518      6.6303362165540101
   203   1      11.437642238491293      4.3073463493626916      6.6303362165540012
   204   1      13.049738555211482      4.9794053688325439      4.8622465596093454
   205   1      12.148248693317571      2.5689530303252264      4.8622465596093507
   206   1      12.346032244408736      6.6988726479042677      6.6303362165539994
   207   1      10.085519401592732      7.9061530437697991      6.6303362165539479
   208   1      11.699510649686944      8.5031174487421595      4.8622465596094191
   209   1      10.749636188869074      6.1020511027879474      4.8622465596093871
   210   1      11.175025890821031     0.29278055862344488      4.8622465596093329
   211   1      10.505580344053303      1.8993096132724807      6.6303362165540083
   212   1      8.2349555279371423      2.9774120735468412      6.6303362165540127
   213   1      9.8375922537178671      3.6647256335827154      4.8622465596093534
   214   1      8.8943078529074171      1.2574578963242171      4.8622465596093285
   215   1      9.1619629014112558      5.4364211338274488      6.6303362165539683
   216   1      6.8429749560381685      6.3812187153572095      6.6303362165539239
   217   1      8.5007825647620177      7.2150054474069378      4.8622465596093578
   218   1       7.539613833934717       4.721107188578844      4.8622465596093436
   219   1      7.8115889537365844      8.8032432204487385      6.6303362165542827
   220   1      6.0989435246143735      7.9639097459844299      4.8622465596093303
   221   1       7.253989565371552     0.62576635354940802      6.6303362165540056
   222   1      4.9384781045457196      1.5707956373473522      6.6303362165540056
   223   1      6.6014041615284409      2.2930582635717744        4.86224655960934
   224   1      5.6337531068273909                       0      4.8622465596093534
   225   1      5.8906146333293927      3.9789885013811377      6.6303362165540047
   226   1      3.5300241875941465      4.9794053688324915       6.630336216554011
   227   1      5.1679399355302271      5.6456229250820797      4.8622465596093321
   228   1       4.246568310072675      3.2668448519127233        4.86224655960934
   229   1      4.4902279722162062      7.3718206110808433      6.6303362165539914
   230   1      2.1797962820693759      8.5031174487417154       6.630336216554106
   231   1      3.8729964887959683      8.9540295660497158      4.8622465596094946
   232   1      2.8263178767912938      6.6988726479040972      4.8622465596093356
   233   1      1.6553115232036795     0.29278055862339958      6.6303362165540012
   234   1      3.2982802061528043     0.86647193524524457      4.8622465596093463
   235   1      2.6285343257002225      2.5689530303251855      6.6303362165540101
   236   1     0.31787788610051609      3.6647256335826972      6.6303362165540278
   237   1      1.9179278708739205      4.3073463493626205      4.8622465596093347
   238   1     0.98586597643596474      1.8993096132724452      4.8622465596093392
   239   1       1.229921821251752      6.1020511027877768      6.6303362165540722
   240   1     0.56580503397544868      7.9061530437697343      4.8622465596092646
