(written by ASE)

68 atoms
1 atom types

0.0      6.4031151289903283  xlo xhi
0.0       3.841868875154594  ylo yhi
0.0      33.908298079718371  zlo zhi

Atoms # atomic

     1   1      4.7411223671680522      1.5355086623419869     0.80737640792221832
     2   1     0.42529019374842736      3.4565291037720356      0.3982788526284029
     3   1      2.2421596335928418       1.535555931059805                       0
     4   1      2.7908031402518336      3.4564870665655469      1.3305837706700459
     5   1      5.1663277187686667      3.4564135219757444      2.2817541690271863
     6   1      0.7098604360429569      1.5356277956501354      1.8545313240542463
     7   1      1.1407087692609901      3.4566603027724376      3.2608492049735993
     8   1      3.1555523338811078      1.5355399872958364      2.7492610542994758
     9   1       3.509031183105447      3.4564330223118711      4.1901325657096873
    10   1      5.5087874035532929      1.5353629802987523      3.7481850300661854
    11   1      1.4934504382476379      1.5359722693425852      4.6701189009978172
    12   1      1.8492568948366208      3.4575721959669665      6.0971045342683592
    13   1      3.8578512261402089      1.5353481212936939      5.6288287448048884
    14   1      5.8769564743044631      3.4560700434187748       5.155146365438755
    15   1      6.2354841606075366      1.5345603378467276      6.5753103449043273
    16   1      2.2025907668462077      1.5384126717698379      7.5268072819196696
    17   1      4.2193384766844018      3.4557935118487184      7.0523533263992162
    18   1      4.5779261076406739      1.5333490780004388      8.4746084677127023
    19   1     0.19002666267945337       3.454151254326292      8.0008234184234155
    20   1     0.54336904856953139      1.5301252225190389      9.4309313810429316
    21   1      2.5614460352197845      3.4638905852805797      8.9501402997349047
    22   1       4.937537392106174      3.4497882386908181      9.9014760271288509
    23   1      5.2848560189267859      1.5156242050148903      11.342083832169298
    24   1     0.90022084105176825      3.4445037944427166      10.852622713859905
    25   1      2.9213829838765863      1.5544087398141522      10.368493447550101
    26   1      3.2893727292027961      3.5035728512563846      11.789524386952838
    27   1      5.6400893597400055      3.3999137870762195      12.778281992846178
    28   1        1.26325101603684      1.5105754859131741      12.255434514714253
    29   1      1.6680466800795184      3.4083960289659352      13.645956864910669
    30   1      3.6211209799193309      1.6558213789286866      13.254353333480459
    31   1      6.0244706899878997      1.3991224179824899      14.175968709276184
    32   1     0.13731639199322748      3.2037882089945167      15.483997121125054
    33   1      2.0295376760291002      1.3917100026350038      15.252039143178692
    34   1      3.9315914214008383      3.7489537393505463      14.734419516467462
    35   1      4.4446982942236692      2.1561913892368856      16.191750297310939
    36   1     0.13726783083931313      1.1083348840210858      16.899195427375631
    37   1      2.0294936835487545      2.9203951322982742      17.131151503560734
    38   1      3.9315092094494877     0.56308575023264407       17.64861685069479
    39   1      1.6680177575216502     0.90371980746914327      18.737283434579012
    40   1      6.0246138749694067      2.9130305275985355      18.207280891693372
    41   1      5.6400025013631661     0.91223683329010741      19.604786604607686
    42   1      3.6211512072758847      2.6562595393145911      19.128741624591683
    43   1      1.2634168963268233      2.8015321395721879      20.127905632314786
    44   1     0.90014039174290805     0.86761617286628823      21.530395261958692
    45   1      5.2847703156107109      2.7965196162429145       21.04087681501424
    46   1      3.2892975605766028     0.80856047270034037      20.593802401275568
    47   1      2.9217396298997973      2.7577318360218248      22.015313398095749
    48   1      0.5431336570254417      2.7820029216235067      22.951452607279716
    49   1      4.9371848364797124      0.8623253047670788      22.481783268031002
    50   1      4.5787796046263072      2.7787477132014757      23.910574905072309
    51   1       2.561562294700205      0.8482134203631333      23.433169791581687
    52   1      2.2028427601506881      2.7736523876263042       24.85395561707702
    53   1     0.18834681118063457     0.85795001613310651      24.381282958004917
    54   1      4.2202825965235959     0.85629857076613991      25.333519270558149
    55   1      3.8612838551404676      2.7767410976273887      26.752688369524066
    56   1      1.8426572903232052     0.85448882160768491      26.278976222318338
    57   1      6.2373877843694912      2.7775135397716881      25.812020591400362
    58   1      5.8813771207602787     0.85600562326454954      27.238566504850766
    59   1      3.4934383838099503     0.85565753005683087      28.159878697455028
    60   1      1.4937920569773884      2.7761158629578424      27.718307683721434
    61   1       1.140312566908624     0.85543444500639954      29.159238636510658
    62   1      5.5283967686601363      2.7767189687640124      28.647429068731867
    63   1      5.0975880968772778     0.85568257152013694      30.053710005855663
    64   1       3.151005658231278      2.7765465415424857      29.626562714143347
    65   1     0.77548580890810115      2.7764549219488637      30.577782933416039
    66   1     0.22675792815810286     0.85555143234202524      31.908298079718371
    67   1      4.8130774707606081      2.7765780687407671      31.510007354299333
    68   1      2.7258531012598839      0.8555885343926638      31.101091010336887
