(written by ASE)

42 atoms
1 atom types

0.0      4.0496852345588978  xlo xhi
0.0       4.748676871444693  ylo yhi
0.0      26.934774898293398  zlo zhi

Atoms # atomic

     1   1      4.0491263875051162     0.17619517707194676                       0
     2   1      2.0242853861223757      1.4492445274541725     0.54762319153989836
     3   1      4.0491304616909209      2.6908778539997131      1.0952857119959791
     4   1      2.0242914022279552      3.9908635889582129      1.5901140944466476
     5   1      4.0491424017710971     0.54367573160294969      2.3299390476620245
     6   1      2.0243067185236097      1.8722224615743559      2.9304987066997281
     7   1      4.0491556225412761      3.1404989481867598      3.5237134888860253
     8   1      2.0243198617630482      4.4330392968813026      4.1074813723622494
     9   1      4.0491712224424878       0.985879759816227      4.7355304058331544
    10   1      2.0243407339867163      2.2807156518648615      5.3765768031461976
    11   1      4.0491926043852038      3.5843186619425702      5.9402421633788345
    12   1      2.0243658940048981     0.10997568874881006      6.5993636343502411
    13   1      4.0492176567438252      1.4310018610409652      7.1423982171910385
    14   1      2.0243990185590417      2.6906983415889814      7.8568375610284864
    15   1      4.0492502622320874       4.029997497145656      8.3344756551408263
    16   1      2.0244500562374288     0.50627024004560039       9.116996670978331
    17   1      4.0493060687846789      1.8786924207752078       9.520011583063825
    18   1      2.0245481623012598      3.0430761137502498      10.416447641311175
    19   1      4.0494159436522885      4.4592443046114871      10.692975536892833
    20   1      2.0246838844426325     0.76467974514341752      11.760902793217886
    21   1      4.0495402906321427      2.2341643122260275      11.877555445446715
    22   1      4.0496539061419394      4.6085949589913113      13.057280405370017
    23   1      2.0248251149802301      3.1390649436711642      13.173702095749929
    24   1  9.4913169960515189e-05      2.0850903715092506      14.241874395237538
    25   1      2.0249634031070487      0.6688564285626083      14.518240043238503
    26   1   0.0002084603610563312      4.2532398399732285      15.414827998342432
    27   1      2.0250654420154413      2.8807725526226555      15.817729471158119
    28   1  0.00026798026984078683      1.6558738299401261      16.600347954332179
    29   1      2.0251203247746283     0.31654691955902126      17.077908083280725
    30   1  0.00030421113206715325      3.8055527199548322       17.79242106308218
    31   1      2.0251572734241869      2.4844992773607761      18.335390936798404
    32   1  0.00033278013502887862      1.2101815228607449      18.994563514291357
    33   1      2.0251862739791378      4.6552362054021481      19.558182216170991
    34   1  0.00035801007367864936      3.3604111771125913      20.199254133752827
    35   1      2.0252112294049676      2.0588775994074737      20.827294485255894
    36   1  0.00037691599331463976     0.76634561105759169      21.411067973605007
    37   1      2.0252274552421103      4.2467414995619723      22.004265776358324
    38   1  0.00039369536359860457      2.9182003040910245       22.60484158999158
    39   1      2.0252472647775748      1.6167163224213663      23.344671024020812
    40   1  0.00040930714689831933     0.31673778863704871      23.839496196759256
    41   1      2.0252551916849497      3.8237749372734422      24.387137654666738
    42   1  0.00041472779456259447      2.5507379015679539      24.934774898293398
