(written by ASE)

48 atoms
1 atom types

0.0      4.0496852345588978  xlo xhi
0.0      4.9598311954860979  ylo yhi
0.0      28.757632481475827  zlo zhi

Atoms # atomic

     1   1       4.049602393223676     0.11441246758531218                       0
     2   1      4.0496023932255421      2.5943281975871102  4.6909384820992431e-08
     3   1      2.0247605571441563      1.5688409200024789      1.0292422131990184
     4   1      2.0247605570305978      4.0487564387925463      1.0292422648989232
     5   1       4.049604008041217     0.85255638232599984      2.2733334736593234
     6   1      4.0496040082643585      3.3324727278756154      2.2733329870754249
     7   1      2.0247627269800339      2.4546772598679274      3.3872519608478497
     8   1      2.0247627272771145      4.9345952957190704       3.387251154233172
     9   1      4.0496068018140106      1.6585978964225165      4.5896195267973416
    10   1      4.0496068015514046      4.1385108430885618      4.5896205735500404
    11   1      2.0247664776404575     0.81529094126586843      5.7400828347771595
    12   1      2.0247664777125629      3.2952082426271851      5.7400822870187485
    13   1      4.0496111242370709      2.4783039820348249      6.9200445811631335
    14   1      4.0496111238491634      4.9582189083733237      6.9200447864412169
    15   1      2.0247708403773759      1.6460761420593704      8.0826226221593878
    16   1      2.0247708411135106      4.1259946268591934      8.0826215623387903
    17   1      4.0496168241847901     0.82246587468523213      9.2561353940395321
    18   1      4.0496168231903846      3.3023774832703916      9.2561368101864083
    19   1       2.024777499135364      4.9535387802510416      10.422365887326022
    20   1      2.0247775003160968      2.4736266355444512      10.422364592579566
    21   1      4.0496240081696202      1.6510981992438283      11.593186725512894
    22   1      4.0496240091421134      4.1310155087333209      11.593186070734983
    23   1      2.0247842032247845     0.84549841114628299      12.743682839331147
    24   1      2.0247842026737581      3.3254137075332162       12.74368319915005
    25   1      4.0496325332812972      2.3542208558328062      13.963516731806173
    26   1      4.0496325332290146      4.8341362784442543      13.963516650698416
    27   1      2.0247962961602868     0.85361863203993682      15.181663294631193
    28   1      2.0247962961265373      3.3335335915009452      15.181662888420115
    29   1      4.0496418249812765       1.656204404559368      16.335135289715836
    30   1      4.0496418250230732      4.1361208370765317      16.335135575162365
    31   1      2.0248024380223582   0.0022929877308018195      17.502037913357587
    32   1      2.0248024380400613        2.48220900783812       17.50203810148837
    33   1      4.0496480695943333     0.82583322694867733      18.674185758531596
    34   1      4.0496480694769774       3.305749151295335      18.674185900122886
    35   1      2.0248084503080523      1.6580638964715184      19.837874818163836
    36   1       2.024808450472138      4.1379782805652408      19.837874364319422
    37   1      4.0496541264137385       2.475252010619752      21.017332459265823
    38   1      4.0496541261908829      4.9551693528277694      21.017333081541022
    39   1      2.0248128690872655     0.83841463397142879      22.168063119372302
    40   1      2.0248128688673819      3.3183317314858387      22.168063728569191
    41   1      4.0496574452946072      1.6346435095960288      23.370286721037466
    42   1      4.0496574455021825      4.1145581557285826      23.370286390099025
    43   1      2.0248159315857057      2.5123582504169484      24.484311338571811
    44   1      2.0248159315011813    0.032442751977591784      24.484311490912624
    45   1      4.0496596280159105     0.74881648166548131      25.728344870758203
    46   1       4.049659627928067      3.2287320007790976      25.728344854868549
    47   1      2.0248171957960635      1.7742789926566076      26.757632481475827
    48   1       2.024817195781305      4.2541946619713267      26.757632466658965
