(written by ASE)

128 atoms
1 atom types

0.0      11.454851078178971  xlo xhi
0.0      11.454851078178971  ylo yhi
0.0      11.454851078178971  zlo zhi

Atoms # atomic

     1   1                       0                       0                       0
     2   1      1.4318563847723713      1.4318563847723713      1.4318563847723713
     3   1                       0                       0      2.8637127695447426
     4   1      1.4318563847723713      1.4318563847723713      4.2955691543171142
     5   1                       0                       0      5.7274255390894844
     6   1      1.4318563847723713      1.4318563847723713      7.1592819238618564
     7   1                       0                       0      8.5911383086342283
     8   1      1.4318563847723713      1.4318563847723713        10.0229946934066
     9   1                       0      2.8637127695447426                       0
    10   1      1.4318563847723713      4.2955691543171142      1.4318563847723713
    11   1                       0      2.8637127695447426      2.8637127695447426
    12   1      1.4318563847723713      4.2955691543171142      4.2955691543171142
    13   1                       0      2.8637127695447426      5.7274255390894844
    14   1      1.4318563847723713      4.2955691543171142      7.1592819238618564
    15   1                       0      2.8637127695447426      8.5911383086342283
    16   1      1.4318563847723713      4.2955691543171142        10.0229946934066
    17   1                       0      5.7274255390894844                       0
    18   1      1.4318563847723713      7.1592819238618564      1.4318563847723713
    19   1                       0      5.7274255390894844      2.8637127695447426
    20   1      1.4318563847723713      7.1592819238618564      4.2955691543171142
    21   1                       0      5.7274255390894844      5.7274255390894844
    22   1      1.4318563847723713      7.1592819238618564      7.1592819238618564
    23   1                       0      5.7274255390894844      8.5911383086342283
    24   1      1.4318563847723713      7.1592819238618564        10.0229946934066
    25   1                       0      8.5911383086342283                       0
    26   1      1.4318563847723713        10.0229946934066      1.4318563847723713
    27   1                       0      8.5911383086342283      2.8637127695447426
    28   1      1.4318563847723713        10.0229946934066      4.2955691543171142
    29   1                       0      8.5911383086342283      5.7274255390894844
    30   1      1.4318563847723713        10.0229946934066      7.1592819238618564
    31   1                       0      8.5911383086342283      8.5911383086342283
    32   1      1.4318563847723713        10.0229946934066        10.0229946934066
    33   1      2.8637127695447426                       0                       0
    34   1      4.2955691543171142      1.4318563847723713      1.4318563847723713
    35   1      2.8637127695447426                       0      2.8637127695447426
    36   1      4.2955691543171142      1.4318563847723713      4.2955691543171142
    37   1      2.8637127695447426                       0      5.7274255390894844
    38   1      4.2955691543171142      1.4318563847723713      7.1592819238618564
    39   1      2.8637127695447426                       0      8.5911383086342283
    40   1      4.2955691543171142      1.4318563847723713        10.0229946934066
    41   1      2.8637127695447426      2.8637127695447426                       0
    42   1      4.2955691543171142      4.2955691543171142      1.4318563847723713
    43   1      2.8637127695447426      2.8637127695447426      2.8637127695447426
    44   1      4.2955691543171142      4.2955691543171142      4.2955691543171142
    45   1      2.8637127695447426      2.8637127695447426      5.7274255390894844
    46   1      4.2955691543171142      4.2955691543171142      7.1592819238618564
    47   1      2.8637127695447426      2.8637127695447426      8.5911383086342283
    48   1      4.2955691543171142      4.2955691543171142        10.0229946934066
    49   1      2.8637127695447426      5.7274255390894844                       0
    50   1      4.2955691543171142      7.1592819238618564      1.4318563847723713
    51   1      2.8637127695447426      5.7274255390894844      2.8637127695447426
    52   1      4.2955691543171142      7.1592819238618564      4.2955691543171142
    53   1      2.8637127695447426      5.7274255390894844      5.7274255390894844
    54   1      4.2955691543171142      7.1592819238618564      7.1592819238618564
    55   1      2.8637127695447426      5.7274255390894844      8.5911383086342283
    56   1      4.2955691543171142      7.1592819238618564        10.0229946934066
    57   1      2.8637127695447426      8.5911383086342283                       0
    58   1      4.2955691543171142        10.0229946934066      1.4318563847723713
    59   1      2.8637127695447426      8.5911383086342283      2.8637127695447426
    60   1      4.2955691543171142        10.0229946934066      4.2955691543171142
    61   1      2.8637127695447426      8.5911383086342283      5.7274255390894844
    62   1      4.2955691543171142        10.0229946934066      7.1592819238618564
    63   1      2.8637127695447426      8.5911383086342283      8.5911383086342283
    64   1      4.2955691543171142        10.0229946934066        10.0229946934066
    65   1      5.7274255390894844                       0                       0
    66   1      7.1592819238618564      1.4318563847723713      1.4318563847723713
    67   1      5.7274255390894844                       0      2.8637127695447426
    68   1      7.1592819238618564      1.4318563847723713      4.2955691543171142
    69   1      5.7274255390894844                       0      5.7274255390894844
    70   1      7.1592819238618564      1.4318563847723713      7.1592819238618564
    71   1      5.7274255390894844                       0      8.5911383086342283
    72   1      7.1592819238618564      1.4318563847723713        10.0229946934066
    73   1      5.7274255390894844      2.8637127695447426                       0
    74   1      7.1592819238618564      4.2955691543171142      1.4318563847723713
    75   1      5.7274255390894844      2.8637127695447426      2.8637127695447426
    76   1      7.1592819238618564      4.2955691543171142      4.2955691543171142
    77   1      5.7274255390894844      2.8637127695447426      5.7274255390894844
    78   1      7.1592819238618564      4.2955691543171142      7.1592819238618564
    79   1      5.7274255390894844      2.8637127695447426      8.5911383086342283
    80   1      7.1592819238618564      4.2955691543171142        10.0229946934066
    81   1      5.7274255390894844      5.7274255390894844                       0
    82   1      7.1592819238618564      7.1592819238618564      1.4318563847723713
    83   1      5.7274255390894844      5.7274255390894844      2.8637127695447426
    84   1      7.1592819238618564      7.1592819238618564      4.2955691543171142
    85   1      5.7274255390894844      5.7274255390894844      5.7274255390894844
    86   1      7.1592819238618564      7.1592819238618564      7.1592819238618564
    87   1      5.7274255390894844      5.7274255390894844      8.5911383086342283
    88   1      7.1592819238618564      7.1592819238618564        10.0229946934066
    89   1      5.7274255390894844      8.5911383086342283                       0
    90   1      7.1592819238618564        10.0229946934066      1.4318563847723713
    91   1      5.7274255390894844      8.5911383086342283      2.8637127695447426
    92   1      7.1592819238618564        10.0229946934066      4.2955691543171142
    93   1      5.7274255390894844      8.5911383086342283      5.7274255390894844
    94   1      7.1592819238618564        10.0229946934066      7.1592819238618564
    95   1      5.7274255390894844      8.5911383086342283      8.5911383086342283
    96   1      7.1592819238618564        10.0229946934066        10.0229946934066
    97   1      8.5911383086342283                       0                       0
    98   1        10.0229946934066      1.4318563847723713      1.4318563847723713
    99   1      8.5911383086342283                       0      2.8637127695447426
   100   1        10.0229946934066      1.4318563847723713      4.2955691543171142
   101   1      8.5911383086342283                       0      5.7274255390894844
   102   1        10.0229946934066      1.4318563847723713      7.1592819238618564
   103   1      8.5911383086342283                       0      8.5911383086342283
   104   1        10.0229946934066      1.4318563847723713        10.0229946934066
   105   1      8.5911383086342283      2.8637127695447426                       0
   106   1        10.0229946934066      4.2955691543171142      1.4318563847723713
   107   1      8.5911383086342283      2.8637127695447426      2.8637127695447426
   108   1        10.0229946934066      4.2955691543171142      4.2955691543171142
   109   1      8.5911383086342283      2.8637127695447426      5.7274255390894844
   110   1        10.0229946934066      4.2955691543171142      7.1592819238618564
   111   1      8.5911383086342283      2.8637127695447426      8.5911383086342283
   112   1        10.0229946934066      4.2955691543171142        10.0229946934066
   113   1      8.5911383086342283      5.7274255390894844                       0
   114   1        10.0229946934066      7.1592819238618564      1.4318563847723713
   115   1      8.5911383086342283      5.7274255390894844      2.8637127695447426
   116   1        10.0229946934066      7.1592819238618564      4.2955691543171142
   117   1      8.5911383086342283      5.7274255390894844      5.7274255390894844
   118   1        10.0229946934066      7.1592819238618564      7.1592819238618564
   119   1      8.5911383086342283      5.7274255390894844      8.5911383086342283
   120   1        10.0229946934066      7.1592819238618564        10.0229946934066
   121   1      8.5911383086342283      8.5911383086342283                       0
   122   1        10.0229946934066        10.0229946934066      1.4318563847723713
   123   1      8.5911383086342283      8.5911383086342283      2.8637127695447426
   124   1        10.0229946934066        10.0229946934066      4.2955691543171142
   125   1      8.5911383086342283      8.5911383086342283      5.7274255390894844
   126   1        10.0229946934066        10.0229946934066      7.1592819238618564
   127   1      8.5911383086342283      8.5911383086342283      8.5911383086342283
   128   1        10.0229946934066        10.0229946934066        10.0229946934066
