(written by ASE)

128 atoms
1 atom types

0.0      11.463807566205707  xlo xhi
0.0      11.463807566205707  ylo yhi
0.0      11.463807566205707  zlo zhi

Atoms # atomic

     1   1                       0                       0                       0
     2   1      1.4329759457757134      1.4329759457757134      1.4329759457757134
     3   1                       0                       0      2.8659518915514268
     4   1      1.4329759457757134      1.4329759457757134        4.29892783732714
     5   1                       0                       0      5.7319037831028528
     6   1      1.4329759457757134      1.4329759457757134      7.1648797288785673
     7   1                       0                       0        8.59785567465428
     8   1      1.4329759457757134      1.4329759457757134      10.030831620429995
     9   1                       0      2.8659518915514268                       0
    10   1      1.4329759457757134        4.29892783732714      1.4329759457757134
    11   1                       0      2.8659518915514268      2.8659518915514268
    12   1      1.4329759457757134        4.29892783732714        4.29892783732714
    13   1                       0      2.8659518915514268      5.7319037831028528
    14   1      1.4329759457757134        4.29892783732714      7.1648797288785673
    15   1                       0      2.8659518915514268        8.59785567465428
    16   1      1.4329759457757134        4.29892783732714      10.030831620429995
    17   1                       0      5.7319037831028528                       0
    18   1      1.4329759457757134      7.1648797288785673      1.4329759457757134
    19   1                       0      5.7319037831028528      2.8659518915514268
    20   1      1.4329759457757134      7.1648797288785673        4.29892783732714
    21   1                       0      5.7319037831028528      5.7319037831028528
    22   1      1.4329759457757134      7.1648797288785673      7.1648797288785673
    23   1                       0      5.7319037831028528        8.59785567465428
    24   1      1.4329759457757134      7.1648797288785673      10.030831620429995
    25   1                       0        8.59785567465428                       0
    26   1      1.4329759457757134      10.030831620429995      1.4329759457757134
    27   1                       0        8.59785567465428      2.8659518915514268
    28   1      1.4329759457757134      10.030831620429995        4.29892783732714
    29   1                       0        8.59785567465428      5.7319037831028528
    30   1      1.4329759457757134      10.030831620429995      7.1648797288785673
    31   1                       0        8.59785567465428        8.59785567465428
    32   1      1.4329759457757134      10.030831620429995      10.030831620429995
    33   1      2.8659518915514268                       0                       0
    34   1        4.29892783732714      1.4329759457757134      1.4329759457757134
    35   1      2.8659518915514268                       0      2.8659518915514268
    36   1        4.29892783732714      1.4329759457757134        4.29892783732714
    37   1      2.8659518915514268                       0      5.7319037831028528
    38   1        4.29892783732714      1.4329759457757134      7.1648797288785673
    39   1      2.8659518915514268                       0        8.59785567465428
    40   1        4.29892783732714      1.4329759457757134      10.030831620429995
    41   1      2.8659518915514268      2.8659518915514268                       0
    42   1        4.29892783732714        4.29892783732714      1.4329759457757134
    43   1      2.8659518915514268      2.8659518915514268      2.8659518915514268
    44   1        4.29892783732714        4.29892783732714        4.29892783732714
    45   1      2.8659518915514268      2.8659518915514268      5.7319037831028528
    46   1        4.29892783732714        4.29892783732714      7.1648797288785673
    47   1      2.8659518915514268      2.8659518915514268        8.59785567465428
    48   1        4.29892783732714        4.29892783732714      10.030831620429995
    49   1      2.8659518915514268      5.7319037831028528                       0
    50   1        4.29892783732714      7.1648797288785673      1.4329759457757134
    51   1      2.8659518915514268      5.7319037831028528      2.8659518915514268
    52   1        4.29892783732714      7.1648797288785673        4.29892783732714
    53   1      2.8659518915514268      5.7319037831028528      5.7319037831028528
    54   1        4.29892783732714      7.1648797288785673      7.1648797288785673
    55   1      2.8659518915514268      5.7319037831028528        8.59785567465428
    56   1        4.29892783732714      7.1648797288785673      10.030831620429995
    57   1      2.8659518915514268        8.59785567465428                       0
    58   1        4.29892783732714      10.030831620429995      1.4329759457757134
    59   1      2.8659518915514268        8.59785567465428      2.8659518915514268
    60   1        4.29892783732714      10.030831620429995        4.29892783732714
    61   1      2.8659518915514268        8.59785567465428      5.7319037831028528
    62   1        4.29892783732714      10.030831620429995      7.1648797288785673
    63   1      2.8659518915514268        8.59785567465428        8.59785567465428
    64   1        4.29892783732714      10.030831620429995      10.030831620429995
    65   1      5.7319037831028528                       0                       0
    66   1      7.1648797288785673      1.4329759457757134      1.4329759457757134
    67   1      5.7319037831028528                       0      2.8659518915514268
    68   1      7.1648797288785673      1.4329759457757134        4.29892783732714
    69   1      5.7319037831028528                       0      5.7319037831028528
    70   1      7.1648797288785673      1.4329759457757134      7.1648797288785673
    71   1      5.7319037831028528                       0        8.59785567465428
    72   1      7.1648797288785673      1.4329759457757134      10.030831620429995
    73   1      5.7319037831028528      2.8659518915514268                       0
    74   1      7.1648797288785673        4.29892783732714      1.4329759457757134
    75   1      5.7319037831028528      2.8659518915514268      2.8659518915514268
    76   1      7.1648797288785673        4.29892783732714        4.29892783732714
    77   1      5.7319037831028528      2.8659518915514268      5.7319037831028528
    78   1      7.1648797288785673        4.29892783732714      7.1648797288785673
    79   1      5.7319037831028528      2.8659518915514268        8.59785567465428
    80   1      7.1648797288785673        4.29892783732714      10.030831620429995
    81   1      5.7319037831028528      5.7319037831028528                       0
    82   1      7.1648797288785673      7.1648797288785673      1.4329759457757134
    83   1      5.7319037831028528      5.7319037831028528      2.8659518915514268
    84   1      7.1648797288785673      7.1648797288785673        4.29892783732714
    85   1      5.7319037831028528      5.7319037831028528      5.7319037831028528
    86   1      7.1648797288785673      7.1648797288785673      7.1648797288785673
    87   1      5.7319037831028528      5.7319037831028528        8.59785567465428
    88   1      7.1648797288785673      7.1648797288785673      10.030831620429995
    89   1      5.7319037831028528        8.59785567465428                       0
    90   1      7.1648797288785673      10.030831620429995      1.4329759457757134
    91   1      5.7319037831028528        8.59785567465428      2.8659518915514268
    92   1      7.1648797288785673      10.030831620429995        4.29892783732714
    93   1      5.7319037831028528        8.59785567465428      5.7319037831028528
    94   1      7.1648797288785673      10.030831620429995      7.1648797288785673
    95   1      5.7319037831028528        8.59785567465428        8.59785567465428
    96   1      7.1648797288785673      10.030831620429995      10.030831620429995
    97   1        8.59785567465428                       0                       0
    98   1      10.030831620429995      1.4329759457757134      1.4329759457757134
    99   1        8.59785567465428                       0      2.8659518915514268
   100   1      10.030831620429995      1.4329759457757134        4.29892783732714
   101   1        8.59785567465428                       0      5.7319037831028528
   102   1      10.030831620429995      1.4329759457757134      7.1648797288785673
   103   1        8.59785567465428                       0        8.59785567465428
   104   1      10.030831620429995      1.4329759457757134      10.030831620429995
   105   1        8.59785567465428      2.8659518915514268                       0
   106   1      10.030831620429995        4.29892783732714      1.4329759457757134
   107   1        8.59785567465428      2.8659518915514268      2.8659518915514268
   108   1      10.030831620429995        4.29892783732714        4.29892783732714
   109   1        8.59785567465428      2.8659518915514268      5.7319037831028528
   110   1      10.030831620429995        4.29892783732714      7.1648797288785673
   111   1        8.59785567465428      2.8659518915514268        8.59785567465428
   112   1      10.030831620429995        4.29892783732714      10.030831620429995
   113   1        8.59785567465428      5.7319037831028528                       0
   114   1      10.030831620429995      7.1648797288785673      1.4329759457757134
   115   1        8.59785567465428      5.7319037831028528      2.8659518915514268
   116   1      10.030831620429995      7.1648797288785673        4.29892783732714
   117   1        8.59785567465428      5.7319037831028528      5.7319037831028528
   118   1      10.030831620429995      7.1648797288785673      7.1648797288785673
   119   1        8.59785567465428      5.7319037831028528        8.59785567465428
   120   1      10.030831620429995      7.1648797288785673      10.030831620429995
   121   1        8.59785567465428        8.59785567465428                       0
   122   1      10.030831620429995      10.030831620429995      1.4329759457757134
   123   1        8.59785567465428        8.59785567465428      2.8659518915514268
   124   1      10.030831620429995      10.030831620429995        4.29892783732714
   125   1        8.59785567465428        8.59785567465428      5.7319037831028528
   126   1      10.030831620429995      10.030831620429995      7.1648797288785673
   127   1        8.59785567465428        8.59785567465428        8.59785567465428
   128   1      10.030831620429995      10.030831620429995      10.030831620429995
