(written by ASE)

180 atoms
1 atom types

0.0      14.584242368018158  xlo xhi
0.0      20.549973177583098  ylo yhi
0.0      7.0723586277786685  zlo zhi

Atoms # atomic

     1   1      6.1880637564590684      12.620081660689149       7.395243749008082
     2   1      5.6953139885588371       10.88571474107307      1.9284638960821372
     3   1      7.0916349503037113      16.247426577022651       7.707773951240271
     4   1      6.6804247787132818      14.411980190988302      2.2355397490967022
     5   1      3.9364157398756867      11.268215535613946      7.3175034918027126
     6   1      2.7516377159111016      13.458259275473555      7.5269983664112532
     7   1      4.4434067249329443      13.019304827613668       2.154785814541059
     8   1      2.2986914380612413       11.53991318702699      2.0763854359230072
     9   1      4.9900010409586724      14.765641775408513      7.5836257647966629
    10   1      3.8259770738974073      16.886372451779788      7.7423398351730857
    11   1      5.4858067309692613      16.632484447694665      2.4244901098229104
    12   1       3.262515598760126      15.246847972706513      2.3586779746421875
    13   1       5.839777203508703      18.621620632325641      7.8818916876928098
    14   1      4.1967187050187045       18.68175254103717      2.6093360318107117
    15   1      13.082257102728557      10.810956662258372      7.1877125880721513
    16   1     0.63835124241577024      12.083142775205683      7.3969982637267169
    17   1      13.979050328314921       14.40466386640421      7.5333437037831343
    18   1      1.0796720880100756      13.904049182835754      2.2207382685274317
    19   1      13.487535463484697      12.631518393171588      2.0519800799475236
    20   1      1.5141052044010965      15.741456894462067      7.7564514051252216
    21   1     0.21712244078912055      18.194836365112838       7.828828040737454
    22   1      1.9424808201164681      17.420028077747023      2.5937189308000628
    23   1      14.393497515620254      16.257634519681968      2.4002996177737517
    24   1      2.5149870722542937      18.819039919914715      7.8971955259475379
    25   1      9.5766910500418536      11.535171026131296        7.36799928213662
    26   1       11.20046194541033      11.313640607032973      2.0501986903551233
    27   1      11.758656350448907      12.982392956141469      7.4359633562984353
    28   1      10.565295700503777      15.210163484014066      7.6413094363057468
    29   1      12.290099330339757      14.771573984378142      2.2627720591239808
    30   1      10.051542124019331      13.495145914986853      2.2201106160249893
    31   1      12.785904623290932      16.621872301662272      7.7032833133871152
    32   1      11.494979271602926       18.66806766764013      7.8809226795983944
    33   1      13.170403482732713      18.624411829747881      2.5621196738028238
    34   1      11.103877814055748      16.880823642870645      2.4398507669365239
    35   1      7.9341388510050868      12.157169297758038      2.0833175028614144
    36   1      8.3678652535267357      13.900925903776324      7.5388811248915379
    37   1      8.7992711774471868      15.723063528261381      2.4525991899912802
    38   1      9.2581515140434991      17.329359869397049      7.8465295101041583
    39   1      9.7949741235747414      18.827323685312727      2.5826176396846643
    40   1      7.5033416260943637      18.190699064243695      2.4999807121978406
    41   1     0.12610672188820365       10.48168917901082      2.1142507745246792
    42   1      7.4037027067924086      10.461697655027015      7.3604531380113416
    43   1      13.972545962737735      4.2510559698214596      6.6049061907041207
    44   1      12.987435172568365      7.7773214197489233      6.9119820437197896
    45   1       13.48018494046746      6.0429545001360694      1.4452021907936963
    46   1      12.524710236697226      9.3681896658103643      1.8612980808071087
    47   1      11.488839888902422   -0.018716380337319018      6.2311099077439991
    48   1       13.13189838749698    0.041415528490908654     0.95855425216411838
    49   1      12.777927914995525      2.0305517131492872      6.4159558299690955
    50   1      10.554636782779134      3.4161881881083249      6.4817679651311657
    51   1      12.282122224963699      3.8973943853990725      1.2568201750063317
    52   1      11.118098257969715      1.7766637091391848      1.0981061047252005
    53   1      11.735527908940785      5.6437313332108809      6.6856601252602328
    54   1      9.5908126220703362      7.1231229737949144       6.764060503878726
    55   1      11.228536923884086      7.3948206252071396      1.5229424479991855
    56   1      10.043758899923956      5.2047768853616407      1.3134475733938029
    57   1      10.871384040245546      9.3302181588653514      7.0675560382132794
    58   1      8.9980476778980805      9.0912271274882279      1.6132545329672123
    59   1      9.8071082564217953    -0.15600375989246129     0.94325041556947287
    60   1      9.2346020039528387      1.2430080834429464      6.2467270082401001
    61   1      7.1013763316453185      2.4054016411186332      6.4401463219964556
    62   1      8.8062263884730019      2.9215792661531883      1.0839945349522648
    63   1      7.5092436247320196     0.46819979571711823      1.0116178991321958
    64   1      8.3717932720077748      4.7589869780281147      6.6197076712326748
    65   1      6.1954142794770668      6.0315177676477107      6.7884658598555285
    66   1      7.9304724264262827      6.5798933856127251      1.4434476760785058
    67   1      6.6869291442905316      4.2583722944296021      1.3071022360201261
    68   1       7.418227905897143       8.181346981813407      6.7261951652771232
    69   1      5.2325890526882244      9.2948464950126315      6.9791478589943159
    70   1       5.790135918719467      7.8520794985648887      1.6527333517296183
    71   1      5.8782822987440415    0.038624331081571657      6.2783262659422547
    72   1      3.8117566300040955      1.7822125178795774      6.4005951727668036
    73   1      5.4937834392770704      2.0411638591534866      1.1371626264184138
    74   1      4.2028580875892212  -0.0050315067572415297      0.9595232605376901
    75   1      4.9979781463347734       3.891462176454203      6.5776738806766764
    76   1      2.7594209400064869      5.1678902458225835      6.6203353237745297
    77   1      4.4665351664397486      5.6806432046779456      1.4044825835040002
    78   1      3.2731745165029733      3.4528726768343225      1.1991365035148405
    79   1      3.9083407614017496      7.3493955537913171      6.7902472494465433
    80   1      1.7059264938891667      9.5718090333345103      7.2271914068346437
    81   1      3.5792628562363817      9.3328180019573335      1.7728899015884865
    82   1      2.2845698660327076      7.1278651346919482      1.4724466576653648
    83   1      2.5028529393663916    -0.16428752373461633      6.2578282983395157
    84   1     0.21122044215401176     0.47233709656999701      6.3404652275340343
    85   1      1.9660303302915727       1.333676290754608     0.99391643069822555
    86   1      1.5071499933718797      2.9399726327729852      6.3878467495305191
    87   1      1.0757440695259859      4.7621102570145348      1.3015648149383685
    88   1      14.383756134229502      2.4156095838335423      1.1326719885857217
    89   1     0.64201766699264806      6.5058668630749006      6.7571284369324047
    90   1     0.11158152278365772      8.2013385057939452      1.4799928017906179
    91   1      6.1889587203045826      12.646519071207623       3.830449021554172
    92   1      5.7532729253823778      10.953604288043902       5.463366183506456
    93   1      7.1117681438415019      16.261266421309525      4.1702322769687461
    94   1      6.6729242307501808      14.394419436985707       5.775924437496494
    95   1      3.9247506462467703      11.305287933231535      3.8317671264311084
    96   1      2.7637070999733075      13.495454493869373      3.9869680411769015
    97   1      4.4635876751956722      13.039031936621489      5.6903228167650024
    98   1      2.2897808354667362      11.647373714299185      5.6215309603650834
    99   1      4.9862107606995529      14.805556043325456      4.0469043206665827
   100   1      3.7631045712904547      16.935289292147029      4.2362379926269442
   101   1      5.4819395549526471      16.606722166114899      5.9317476844195216
   102   1      3.2559849133794692      15.215293771606095      5.8911302597793629
   103   1       5.911405117043782      18.633303228370757      4.3317851412138584
   104   1      4.2072658545934525      18.668669539329869      6.0941875240790147
   105   1      12.979813234006365      10.998812753166343      3.7088299156152318
   106   1     0.64468085118568996      12.194479148194933         3.8542195183776
   107   1      13.965071662218365        14.3969646471459      4.0041972239447681
   108   1      1.0651029948497976      13.902924603645099      5.7896583139515725
   109   1        13.4917015607469      12.615881779812865      5.6199775140168855
   110   1      1.4960896530613246      15.702034122376523      4.1904421081814558
   111   1     0.17822228558049952      18.162708740236923      4.3117804346903554
   112   1      1.9644173219112129      17.348834048938837        6.07246730998438
   113   1      14.401362447374735      16.247181931450456      5.9338425212071266
   114   1      2.4274266003383809      18.924972578508306      4.4334235940464382
   115   1      9.5866095057343035      11.651273358193301      3.8703954489033654
   116   1      11.236148790032482      11.264814224578842      5.5646677845345787
   117   1      11.736731111413878      13.071903364139295      3.9405388634897571
   118   1      10.537961791617583      15.247626851220705      4.1427162366976562
   119   1      12.277979050824834       14.79156451375032      5.8232788527261459
   120   1      10.044064188093934      13.462435680306235      5.7645626051911716
   121   1      12.771383805731681      16.608565353566643      4.1829786989247602
   122   1      11.494940426819596      18.669686850643721      4.3513892921212545
   123   1      13.167533525643073      18.621420527816234      6.1082405572469813
   124   1      11.070212139894114      16.935100179084646      5.9998845311530102
   125   1      7.9271506159142096       12.12366255203743      5.6459039618328246
   126   1        8.35323835267757      13.904178813715648      4.0197776063497805
   127   1      8.7890770077770224      15.715828168545158       5.964236943148169
   128   1      9.2319895369719589      17.429538388261093      4.3573889915297146
   129   1      9.7268736618507017      18.906876800681378      6.2122156054225011
   130   1      7.4698073869875099      18.167681872909046      6.1108199596441679
   131   1     0.18597119931846476      10.463584004786517      5.4382251561853838
   132   1      7.4476755243768737      10.518665056881396      3.7643719222270264
   133   1      13.965045414770895      4.2686167238290542       3.064521502300805
   134   1      13.045394109391937      7.7094318727769942       3.377079756296228
   135   1      13.481079904312798      6.0165170896189402      5.0099969182460136
   136   1       12.55485527613904      9.3006723500675719      5.2040670992979106
   137   1      11.499387038651379  -0.0056333785485789701       2.746258415419685
   138   1      13.203526301048171    0.029732932449672199      4.5086607986148026
   139   1      12.774060738954466      2.0563139947103819      2.9086982553672769
   140   1      10.548106097379625      3.4477423891896897      2.9493156800019418
   141   1      12.278331944702051      3.8574801174851587      4.7935416191395177
   142   1      11.055225755376508      1.7277468687759543      4.6042079472751674
   143   1      11.755708859205262      5.6240042242044206      3.1501231230362734
   144   1      9.5819020194764271      7.0156624465222697       3.218914979436045
   145   1      11.216871830255823      7.3577482275903039      5.0086788133706515
   146   1      10.055828283984122      5.1675816669639438      4.8534778986303415
   147   1      10.673593377957753      9.3370803317429854      3.5399986001190955
   148   1      9.0040241097140292      9.5772592389551754      5.4523436781212054
   149   1      9.7195477845326668    -0.26193641884318841      4.4070223480622088
   150   1       9.256538505659492      1.3142021125440182      2.7679786288368797
   151   1      7.1092412634558091      2.4158542293361309      2.9066034185654024
   152   1      8.7882108371067726      2.9610020383148927      4.6500038317752814
   153   1      7.4703434694768518     0.50032742060679392      4.5286655051814542
   154   1      8.3572241788513519      4.7601115572066641       3.050787625825949
   155   1      6.1995803767382212      6.0471543810073092      3.2204684257851421
   156   1       7.936802035198264      6.4685570126170502      4.9862264214338907
   157   1      6.6729504781985938      4.2660715136858371      4.8362487158612062
   158   1      7.4780923833262989      8.1994521560408238      3.4022207836149256
   159   1      5.2627340921306267      9.3623638107545553      3.6363788405043294
   160   1      5.6876920499963406      7.6642234076578193      5.1316160241855053
   161   1      5.8754123416367392    0.041615633006495387      2.7322053825280879
   162   1      3.7780909557990756      1.7279359816289359      2.8405614085436079
   163   1      5.4792626217115989      2.0544708072384612      4.6574672408974278
   164   1      4.2028192428963891  -0.0066506897242794953      4.4890566479252296
   165   1       4.985857866819301       3.871471647085702      3.0171670870714946
   166   1      2.7519430040832753      5.2006004805062247       3.075883334604967
   167   1      4.4446099274055317      5.5911327966815509      4.8999070763121422
   168   1      3.2458406075999009      3.4154093096097893      4.6977297031350531
   169   1      3.9440276060237021      7.3982219362445276      3.2757781552673539
   170   1      1.7119029257051794      9.0857769218673372      3.3881022616805239
   171   1      3.3814721939485666      9.3259558290795201      5.3004473396827354
   172   1      2.2944883217248822      7.0117628026311829      4.9700504908988465
   173   1      2.4347524776575131    -0.24384063865374403      2.6282303320940001
   174   1     0.17768620310543412     0.49535428789209085      2.7296259800897311
   175   1      1.9398683531365668      1.2334977721955585      4.4830569490396917
   176   1      1.4969558237318465      2.9472079924068231      2.8762089964970099
   177   1      1.0611171686778273      4.7588573470701601      4.8206683334879328
   178   1      14.403889327814626      2.4017697395371935      4.6702136628708075
   179   1     0.63502943190320715      6.5393736087900294      3.1945419779646387
   180   1     0.15555434036893259      8.1443711039361997      5.0760740175762438
