(written by ASE)

160 atoms
1 atom types

0.0      12.746228261363814  xlo xhi
0.0      22.620766419417556  ylo yhi
0.0      7.0723586277786685  zlo zhi

Atoms # atomic

     1   1      12.711290153986024      13.759144896443807      1.3260674522547835
     2   1      11.714796915869167      12.008827433458878      3.0941572462328204
     3   1      7.8372538042352833      12.774858526263408      1.3260672320301556
     4   1       9.301765405743307      11.576225793336418       3.094157107503686
     5   1      6.8483994416363796      11.435404786203753       3.094157108254926
     6   1      10.309726484310204      13.042165825280158      1.3260674567042348
     7   1      9.8156745025703582      15.637000306481992      1.3260674474774303
     8   1      11.263711311616582      14.613252107386998      3.0941570581472417
     9   1      8.8392972759861816      14.152322851511981       3.094157113501999
    10   1      12.237815256942346      16.189820296352124      1.3260674520489748
    11   1      11.796139457044777       18.61225121508998      1.3260674520895455
    12   1      10.774813962296998       17.14061497044959      3.0941571122627898
    13   1    0.081185497012943961      20.078701575869452      3.0941571087840782
    14   1      2.9286512780987208      11.576225797619133      1.3260674537952315
    15   1      5.3416827851644912      12.008827432803281      1.3260672841898657
    16   1      4.8905971816339022      14.613252106289028      1.3260675141200013
    17   1      6.3381759988638713      13.759144978869339      3.0941571087623885
    18   1      3.9366123535236399      13.042165826759023      3.0941571051212882
    19   1      7.3483107629932372      15.205307776319939      1.3260674818257139
    20   1      6.8546895661088154      17.636634636361364      1.3260674479793728
    21   1      8.3340727786583706      16.641415261051499      3.0941571075349459
    22   1      5.8647011282048904      16.189820285488519      3.0941571089346396
    23   1      9.3160371703154077      18.108677474021921      1.3260674532604251
    24   1      10.337908252373644      19.557055799554842       3.094157108613262
    25   1      7.8775499324315952      19.035654206502649       3.094157109230129
    26   1     0.47528528082052141      11.435405022535154      1.3260674528708529
    27   1      1.4641396721983149      12.774858525525321      3.0941572888922479
    28   1      2.4661831434441583      14.152322849450282      1.3260674464558591
    29   1      1.9609586471463336      16.641415259702267       1.326067453756673
    30   1      3.4425603706800447      15.637000307461234      3.0941571126651133
    31   1     0.97519663294928183      15.205307777085221      3.0941570845710582
    32   1       4.401699832332004      17.140614970507542      1.3260674479788115
    33   1      3.9647941214586844      19.557055799492812      1.3260674524416711
    34   1       5.423025326402759      18.612251216528513       3.094157108896729
    35   1      2.9429230402440205      18.108677473771838      3.0941571079431847
    36   1      6.4542996276848275      20.078701575245603      1.3260674522304401
    37   1     0.48157543558747062      17.636634635999364      3.0941571122552372
    38   1      1.5044358023652522      19.035654207346735      1.3260674516869577
    39   1      11.714796915869169      8.5566592840127207      3.0941572462328217
    40   1      10.797746653811007      10.282743358735798      1.3260674527537601
    41   1      10.774813962296994      3.4248717470220154      3.0941571122627898
    42   1      11.796139457044777      1.9532355023816188      1.3260674520895461
    43   1      11.263711311616584      5.9522346100846049      3.0941570581472417
    44   1      8.8392972759861799      6.4131638659596195       3.094157113501999
    45   1      10.309726484310202      7.5233208921914416      1.3260674567042345
    46   1      9.8156745025703582      4.9284864109896107      1.3260674474774294
    47   1      9.3017654057433088      8.9892609241351806      3.0941571075036847
    48   1      6.8483994416363787      9.1300819312678509      3.0941571082549273
    49   1      8.1544626460543128      10.282743358735802      1.3260676461243301
    50   1      7.8372538042352859      7.7906281912081905      1.3260672320301545
    51   1      10.337908252373644      1.0084309179167601      3.0941571086132629
    52   1      7.8775499324315943      1.5298325109689583      3.0941571092301303
    53   1      9.3160371703154059      2.4568092434496851      1.3260674532604251
    54   1      8.3340727786583724      3.9240714564201009      3.0941571075349459
    55   1      5.8647011282048895      4.3756664319830803      3.0941571089346387
    56   1      7.3483107629932354      5.3601789411516627      1.3260674818257148
    57   1       6.854689566108819      2.9288520811102363      1.3260674479793728
    58   1      6.3381759988638704        6.80634173860226      3.0941571087623889
    59   1      3.9366123535236404      7.5233208907125739      3.0941571051212886
    60   1      5.3416827851644921      8.5566592846683189       1.326067284189868
    61   1      4.8905971816339013      5.9522346111825728      1.3260675141200025
    62   1      4.4246325252866958      10.282743358735802      3.0941571083530297
    63   1      1.7813485154366222        10.2827433587358      3.0941569501884136
    64   1      2.9286512780987226       8.989260919852466      1.3260674537952328
    65   1      6.4542996276848266     0.48678514222600117      1.3260674522304405
    66   1      5.4230253264027573      1.9532355009430895       3.094157108896729
    67   1      2.9429230402440214      2.4568092436997628      3.0941571079431855
    68   1      4.4016998323320022       3.424871746964063      1.3260674479788119
    69   1       3.964794121458683      1.0084309179787949      1.3260674524416725
    70   1      3.4425603706800461      4.9284864100103709      3.0941571126651133
    71   1     0.97519663294928272      5.3601789403863771      3.0941570845710591
    72   1      2.4661831434441588      6.4131638680213214      1.3260674464558571
    73   1      1.9609586471463329      3.9240714577693332      1.3260674537566712
    74   1      1.4641396721983113      7.7906281919462845      3.0941572888922462
    75   1     0.47528528082052179      9.1300816949364467      1.3260674528708549
    76   1      12.711290153986024      6.8063418210277939      1.3260674522547826
    77   1    0.081185497012943267     0.48678514160214875      3.0941571087840773
    78   1      1.5044358023652507      1.5298325101248662      1.3260674516869584
    79   1     0.48157543558747107      2.9288520814722392      3.0941571122552363
    80   1      12.237815256942348      4.3756664211194769      1.3260674520489739
    81   1      12.711290366006448      13.759144162456135      4.8622467656633663
    82   1      11.714796912269072      12.008827432374295      6.6303362855601859
    83   1      7.8372538089942498      12.774858528235805      4.8622469858877153
    84   1      9.3017654278152406      11.576225838708131      6.6303364243174832
    85   1      6.8483991154742583      11.435407371147711      6.6303364235348399
    86   1      10.309726485666843      13.042165813886996       4.862246761213652
    87   1      9.8156745091080939      15.637000296930855      4.8622467704391408
    88   1      11.263711307351802      14.613252105666836      6.6303364736655253
    89   1      8.8392972519757667      14.152322826397201      6.6303364183005264
    90   1      12.237815242609143      16.189820381690296      4.8622467658720874
    91   1      11.796139459249794      18.612251205277612       4.862246765834553
    92   1      10.774813961952439       17.14061496799226      6.6303364195505523
    93   1    0.081185496984175418      20.078701575848843      6.6303364230107418
    94   1      2.9286512961440643      11.576225834723703      4.8622467641138254
    95   1       5.341682782218272      12.008827431913135      4.8622469337473539
    96   1       4.890597178144243       14.61325210488932      4.8622467037974495
    97   1      6.3381762580484606      13.759144081527953      6.6303364230496724
    98   1      3.9366123551818095      13.042165812836375      6.6303364266910583
    99   1      7.3483107620231509      15.205307775559747      4.8622467360967843
   100   1      6.8546895660965017      17.636634636652385      4.8622467699336793
   101   1      8.3340727748675381      16.641415244922758       6.630336424279264
   102   1      5.8647011106889009      16.189820389798818      6.6303364228745041
   103   1        9.31603716804592      18.108677476948728      4.8622467646604202
   104   1      10.337908252266244      19.557055799946735      6.6303364231986244
   105   1      7.8775499328828742      19.035654212224706      6.6303364225734924
   106   1     0.47528501403272844      11.435407136898256      4.8622467650696102
   107   1       1.464139678025079      12.774858527934347      6.6303362429201096
   108   1      2.4661831238018936       14.15232282889537      4.8622467714718374
   109   1      1.9609586440532327      16.641415246515486      4.8622467641593401
   110   1      3.4425603786834742      15.637000295780581      6.6303364191485414
   111   1     0.97519663175950111      15.205307776169505      6.6303364472366626
   112   1      4.4016998320469591      17.140614968496656      4.8622467699380572
   113   1      3.9647941213761877      19.557055799815377       4.862246765476657
   114   1      5.4230253291017254      18.612251204546105      6.6303364229093891
   115   1      2.9429230374722377      18.108677477332083      6.6303364238661819
   116   1      6.4542996276604612      20.078701575232461      4.8622467657049588
   117   1     0.48157543557285892        17.6366346363593      6.6303364195619165
   118   1      1.5044358027298523      19.035654212041166      4.8622467662396298
   119   1      11.714796912269072      8.5566592850973056      6.6303362855601868
   120   1      10.797746629425523        10.2827433587358      4.8622467651645849
   121   1      10.774813961952438      3.4248717494793413      6.6303364195505532
   122   1      11.796139459249792      1.9532355121939846      4.8622467658345521
   123   1        11.2637113073518      5.9522346118047658      6.6303364736655244
   124   1      8.8392972519757702         6.4131638910744      6.6303364183005256
   125   1      10.309726485666845      7.5233209035846054      4.8622467612136502
   126   1      9.8156745091080939      4.9284864205407448      4.8622467704391399
   127   1      9.3017654278152406      8.9892608787634689      6.6303364243174814
   128   1      6.8483991154742618       9.130079346323889       6.630336423534839
   129   1       8.154462646566655        10.2827433587358      4.8622465718007524
   130   1      7.8372538089942525      7.7906281892357923      4.8622469858877162
   131   1      10.337908252266244      1.0084309175248696      6.6303364231986244
   132   1      7.8775499328828715      1.5298325052468968      6.6303364225734924
   133   1        9.31603716804592      2.4568092405228721      4.8622467646604211
   134   1      8.3340727748675381      3.9240714725488468      6.6303364242792648
   135   1      5.8647011106889027      4.3756663276727821      6.6303364228745059
   136   1        7.34831076202315      5.3601789419118537       4.862246736096786
   137   1      6.8546895660965026      2.9288520808192162      4.8622467699336793
   138   1      6.3381762580484633      6.8063426359436479      6.6303364230496724
   139   1        3.93661235518181      7.5233209046352263      6.6303364266910583
   140   1      5.3416827822182729      8.5566592855584673      4.8622469337473513
   141   1      4.8905971781442439      5.9522346125822825      4.8622467037974486
   142   1      4.4246324954644081        10.2827433587358      6.6303364234587825
   143   1       1.781348516076759        10.2827433587358      6.6303365816167368
   144   1      2.9286512961440643      8.9892608827478977      4.8622467641138254
   145   1      6.4542996276604585     0.48678514223914082       4.862246765704958
   146   1      5.4230253291017245       1.953235512925491      6.6303364229093891
   147   1      2.9429230374722382      2.4568092401395183      6.6303364238661819
   148   1      4.4016998320469591      3.4248717489749447       4.862246769938058
   149   1      3.9647941213761873      1.0084309176562218      4.8622467654766588
   150   1      3.4425603786834755      4.9284864216910149      6.6303364191485397
   151   1     0.97519663175950144      5.3601789413020953      6.6303364472366617
   152   1      2.4661831238018936      6.4131638885762339      4.8622467714718383
   153   1      1.9609586440532343      3.9240714709561262       4.862246764159341
   154   1      1.4641396780250813      7.7906281895372542      6.6303362429201087
   155   1      0.4752850140327286      9.1300795805733408      4.8622467650696102
   156   1      12.711290366006448      6.8063425550154655      4.8622467656633654
   157   1    0.081185496984175556     0.48678514162276126      6.6303364230107444
   158   1       1.504435802729853      1.5298325054304371      4.8622467662396271
   159   1     0.48157543557285737       2.928852081112304      6.6303364195619165
   160   1      12.237815242609139      4.3756663357813022      4.8622467658720883
