(written by ASE)

144 atoms
1 atom types

0.0      11.177922746446793  xlo xhi
0.0      21.177729153575708  ylo yhi
0.0      7.0723586277786685  zlo zhi

Atoms # atomic

     1   1      1.0980168835467299      13.520616101491461      2.2201587209547711
     2   1     0.51224107141970132      11.836592528221997      0.4395523262782447
     3   1      1.6450164060059309      15.238143874422537     0.45206906401010472
     4   1      7.7857202768025555      11.322141565059576       2.220158720955034
     5   1      10.051724394277462      12.420195189442254      2.2201587209546525
     6   1      8.9129944683023243      14.667130892309237      2.2201587209547871
     7   1      10.590361314543571      14.099666620031098     0.45276766617768727
     8   1      8.3462986769896013      12.984459240309558     0.45362259861339232
     9   1   -0.025869486021537703       15.79776247846646      2.2201587209547728
    10   1      10.025703853630295      18.053563304595581       2.220158720954831
    11   1     0.52527651590172564       17.50925553867587     0.43716595015438375
    12   1      9.4791616282581224       16.35651535647002     0.45303892716257943
    13   1      1.0878435220151814      19.104510508864013      2.2201587209548963
    14   1    -0.56104042556675426      19.806057578224518     0.49817148517472354
    15   1       4.433604384068401      12.404560066286182      2.2201587209547275
    16   1         6.0839684638225       11.87024595654208     0.42887866509167183
    17   1      6.6608646290284979      13.554643068727517      2.2201587209547555
    18   1      5.5502006931958219      15.809216613349435      2.2201587209547657
    19   1      7.2339777792293063      15.238143874422594     0.45206906401011404
    20   1      4.9887939302005471      14.119772392375006     0.45109920085762645
    21   1      7.7929409253921262      16.914532763294758      2.2201587209547906
    22   1      6.6533973859944124       19.18073553174268      2.2201587209544766
    23   1      8.3839870946356978      18.606041792303603     0.47525946292851834
    24   1      6.1216568814691721      17.491828508535452     0.45051552940684431
    25   1      2.2529051951631631      11.210690763870282      2.2201587209547879
    26   1      2.7647562961101557      12.967032210169382      0.4669721778659785
    27   1      3.3238883072940122      14.672508297176549      2.2201587209547746
    28   1      2.2086546001704037      16.913140981473958      2.2201587209547822
    29   1      3.8775942439150484       16.37662112881409     0.45137046184252178
    30   1      4.4339533346822328      18.074994548299873       2.220158720954863
    31   1      5.0331363716735211      19.731506548030307     0.39931100436898098
    32   1      2.7777917405923627      18.639695220622798     0.46458580174189262
    33   1      10.380029574650552      8.5517414040751198     0.59496024842776629
    34   1      10.581485508377407      6.7554228895118431      2.2201587209530889
    35   1       9.434819186784603       10.74478120081627     0.50482712365118521
    36   1      9.4435644217207173     0.74322605610863879     0.36427986571531445
    37   1      11.264480101897741     0.82019032651679125      2.2201587209547387
    38   1      10.763897446730127      2.7476609021592107     0.32527247739597703
    39   1      8.4686395487306374      4.0700959305577857     0.47319476450580833
    40   1      10.147633634200842       4.388013757356962      2.2201587209528268
    41   1      9.0109669104438765      2.2418667648458652      2.2201587209525417
    42   1       9.496729129512925      6.3775964109461567   0.0064238242220881966
    43   1       7.295906858727605      7.3301316605224862     0.27794068763345164
    44   1      8.5075671748749286      8.5523160630916184      2.2201587209544535
    45   1       8.152595399396116      5.9488089190965781      2.2201587209540556
    46   1      7.2212996579455853       9.705174977249559      0.4508822286631135
    47   1      5.5453213871748837       10.20547773388201      2.2201587209545663
    48   1      7.2466559005131241    -0.40661638198336142     0.45325589935717248
    49   1      8.9245573921667329    -0.76379604512797272      2.2201587209545472
    50   1      7.1720486997305883      1.9684269347539425     0.62619744039062231
    51   1      4.9712264289524777      2.9209621843298557     0.89771430380267869
    52   1      6.8196025663780357      3.8126178295414763      2.2201587209371096
    53   1      5.7321492036368937     0.61862692398200381      2.2201587209549198
    54   1      5.9993160097193838      5.2284626647037005      0.4309433635365415
    55   1      3.7040581117286031       6.550897693108567     0.57886565062629225
    56   1      5.7863464306239933      6.9786605634296315      2.2201587209530449
    57   1      4.4022332636799151      4.8773645862338348      2.2201587209468627
    58   1      5.0243911367386493      8.5553325391612631     0.53985826230621392
    59   1      1.6195547025415713      9.6581060893753516     0.29303184524389364
    60   1       3.851073237578341      10.670230170620455     0.40596664284554823
    61   1      3.1593776937471949      8.7419472276707175      2.2201587209547249
    62   1      4.0879259838074207     0.74681719118977796     0.30917787959132853
    63   1      1.8820500015821933      1.8868109704955331   -0.021522673719101885
    64   1      3.0949608239487114      1.9012602228893807       2.220158720955586
    65   1      3.4783006256946978    -0.74490644766238134      2.2201587209545774
    66   1       2.841148534131515       4.080575143372176     0.46008716567007002
    67   1      11.626807024328448      5.2179834518992223     0.44405096235323299
    68   1      2.0755892987225706      5.5254430153473049        2.22015872095223
    69   1      1.1187761004222088      3.2663174683898006      2.2201587209544029
    70   1      1.4079828104297782       7.411747624768716     0.92566080174194509
    71   1    0.064518039209053427       10.12089809682405      2.2201587209555833
    72   1      1.6704781094708645    -0.35954749410284531     0.61110628277508017
    73   1      1.0813782118413726      13.563146767371352      5.7563380348441129
    74   1      0.5122410714197998      11.836592528221907      4.0007651156312791
    75   1      1.6450164060059185      15.238143874422542      3.9882483778994491
    76   1      7.8145581724642312      11.295552217102424      5.7563380348437567
    77   1      10.034002223776346      12.401293200545307      5.7563380348442132
    78   1      8.9177548652628467      14.667071135495689      5.7563380348440942
    79   1      10.590361314543566      14.099666620031091      3.9875497757318676
    80   1      8.3462986769894858      12.984459240309658      3.9866948432961817
    81   1   -0.033855495282174554      15.803779451668532      5.7563380348441111
    82   1      10.034351174390235      18.071727682558993       5.756338034844072
    83   1     0.52527651590174118      17.509255538675877      4.0031514917551636
    84   1      9.4791616282580815       16.35651535647008       3.987278514746972
    85   1      1.0371276168486052      19.265596984974717      5.7563380348440836
    86   1    -0.56104042556667122      19.806057578224557      3.9421459567348514
    87   1      4.4422517048285224       12.42272444424963      5.7563380348441724
    88   1      6.0839684638229983      11.870245956541511      4.0114387768178741
    89   1      6.6750146330664828      13.561754985550371      5.7563380348441333
    90   1      5.5549610901563353      15.809156856535902      5.7563380348441182
    91   1      7.2339777792293285      15.238143874422537      3.9882483778994411
    92   1       4.988793930200508      14.119772392375088      3.9892182410519177
    93   1      7.8070909294301289       16.92164468011763      5.7563380348440907
    94   1      6.6822352816561086      19.154146183785521      5.7563380348443154
    95   1      8.3839870946361312       18.60604179230306      3.9650579789810294
    96   1      6.1216568814690708      17.491828508535573      3.9898019125027249
    97   1      2.2021892899962006       11.37177723998005      5.7563380348440116
    98   1      2.7647562961101557      12.967032210169334      3.9733452640436222
    99   1       3.315902298033377      14.678525270378636       5.756338034844104
   100   1      2.1920159284651586      16.955671647353732      5.7563380348441129
   101   1      3.8775942439150479      16.376621128814065      3.9889469800670376
   102   1      4.4162311641811245       18.05609255940287      5.7563380348440027
   103   1      5.0331363716740061      19.731506548028868      4.0410064375405037
   104   1      2.7777917405923445      18.639695220622805      3.9757316401675862
   105   1      10.380029574650903       8.551741404079527      3.8453571934806741
   106   1        11.3729947345097      7.3972983723801606      5.7563380348449442
   107   1      9.4348191867849955      10.744781200814831      3.9354903182582945
   108   1      9.4435644217199446     0.74322605610823633      4.0760375761955228
   109   1      11.308577864711639     0.55661136759870444      5.7563380348440871
   110   1      10.763897446729842      2.7476609021610541      4.1150449645157696
   111   1      8.4686395487390431      4.0700959305656044       3.967122677425297
   112   1       10.06572229478083      4.4211940090347595      5.7563380348362925
   113   1      8.6816091278346068      2.3198980318397173      5.7563380348423268
   114   1      9.4967291295057716      6.3775964109400247      4.4338936176917967
   115   1      7.2959068587282339      7.3301316605152476      4.1623767542800554
   116   1      8.7358063548217562      8.6799316712874273      5.7563380348442577
   117   1      7.6483529920805475      5.4859407657281949       5.756338034826344
   118   1      7.2212996579455559      9.7051749772530069      3.9894352132465074
   119   1      5.5433981662920031      10.062354640397432      5.7563380348439379
   120   1      7.2466559005130309    -0.40661638198010669      3.9870615425524432
   121   1      8.9226341712837733    -0.90691913861260198      5.7563380348439903
   122   1      7.1720486997311994      1.9684269347468788      3.8141200015228383
   123   1      4.9712264289454486      2.9209621843236655      3.5426031381112097
   124   1      6.3153601590625446      3.3497496761727974       5.756338034843381
   125   1       5.960388383583755     0.74624253217779002        5.75633803484381
   126   1      5.9993160097279024      5.2284626647115386      4.0093740783946092
   127   1      3.7040581117283193      6.5508976931105218      3.8614517912854454
   128   1      5.4569886480148311       7.056691830423734      5.7563380348418098
   129   1      4.3203219242571338      4.9105448379119698      5.7563380348422131
   130   1      5.0243911367378384      8.5553325391605934      3.9004591796046495
   131   1      1.6195547025413484      9.6581060893752113      4.1472855966655864
   132   1      3.8510732375782166      10.670230170620568      4.0343507990640575
   133   1      3.2034754565608883      8.4783682687525843      5.7563380348440649
   134   1      4.0879259838078221     0.74681719119420364      4.1311395623170872
   135   1      1.8820500015824542      1.8868109704973153      4.4618401156292924
   136   1      3.8864700500816096      2.5431357057581203      5.7563380348424067
   137   1      3.2255147728028288    -0.82233950155457103      5.7563380348449549
   138   1      2.8411485341309746      4.0805751433700381      3.9802302762433008
   139   1      11.626807024328206      5.2179834518971369      3.9962664795600955
   140   1      2.1712567115895118       6.032241126879148      5.7563380348437336
   141   1      1.2144435132861888      3.7731155799265048      5.7563380348412183
   142   1      1.4079828104300585      7.4117476247697995      3.5146566401679817
   143   1    -0.18826781368250861      10.043465042931752      5.7563380348438793
   144   1      1.6704781094705341    -0.35954749410359638      3.8292111591341347
