(written by ASE)

100 atoms
1 atom types

0.0      7.9114520242947419  xlo xhi
0.0      20.804174703302191  ylo yhi
0.0      7.0723586277786685  zlo zhi

Atoms # atomic

     1   1      1.0289157799765083      13.063443062484001      1.7680896882988788
     2   1      7.2386210150798256      10.238534755510202      3.5361793457380881
     3   1      3.2828950032903501      10.238534755578851      1.7680896893126015
     4   1      4.8455180915701224      10.751952891040052      3.5361793453831298
     5   1      6.3771369887693288      11.872111764810723      1.7680896879358088
     6   1       5.905594239953075      14.476769032801798      1.7680896898930119
     7   1      7.3816692731808162       13.50201252048732        3.53617934568826
     8   1      4.9846417916924155      13.063443069771234      3.5361793453466239
     9   1      8.2959876964346009      15.378396447076808      1.7680896887519153
    10   1      7.6854561342090442      17.888889128893517      1.7680896880347481
    11   1      1.2500791434438612      16.914132616497291      3.5361793449349466
    12   1      6.7711377114157587      16.012505201759357      3.5361793452429513
    13   1      8.6899884189070455      19.518789884497824       3.536179345588871
    14   1     0.88979208047079561      10.751952898184165      1.7680896883803499
    15   1      2.4214109766058565      11.872111764808515      3.5361793452131041
    16   1      3.4259432616620114      13.502012520270265      1.7680896891806548
    17   1       2.815411698486443      16.012505203477147      1.7680896880120791
    18   1      4.3402616855325782      15.378396444632598      3.5361793455630193
    19   1      1.9498682278238797      14.476769032769985      3.5361793459742921
    20   1      5.2058051555605482      16.914132616511601      1.7680896874907082
    21   1      4.7342624067709194      19.518789884485486      1.7680896888043016
    22   1      6.1267576033362063      18.327458588050842      3.5361793454856247
    23   1       3.729730121573203      17.888889129126387       3.536179345192501
    24   1      2.1710315914765173       18.32745858314448      1.7680896886201758
    25   1      6.4278942778673276      7.7288360861275613  3.1600705738445006e-08
    26   1      5.6945463885921193       9.306881892029752      1.7680896897504625
    27   1      6.2658813036651342     -0.1652259470431767  3.1500305483722224e-08
    28   1       4.683505117745522      2.8578908597413388  3.1469589802339109e-08
    29   1      6.2901145206135256      3.6899418400769455      1.7680896885600539
    30   1       5.416853006907159      1.2798450539534021      1.7680896876904391
    31   1      5.5556996977741067      5.2933634729605696    3.15281670053041e-08
    32   1      3.2047355918864886      6.0910258128896828  3.1527123323821296e-08
    33   1       4.821284874912882      6.8967851059013263      1.7680896883253283
    34   1      3.9509377915607171      4.4957011332929913      1.7680896884774515
    35   1      4.0549742909005335      8.4688442275300524  3.1533495302093894e-08
    36   1      1.7388203764247729      9.3068818920133864  3.1042214530458952e-08
    37   1      2.4721682656891892      7.7288360861785721       1.768089688284753
    38   1      3.8727783803534361     0.34819219046440086  3.1794849232915356e-08
    39   1      1.4611269947465637      1.2798450539512574  3.1933494392956952e-08
    40   1      3.1006990916304948      2.1178827165858207      1.7680896884804504
    41   1      2.3101552912937806     -0.1652259485876027      1.7680896885276696
    42   1      2.3343885084607128      3.6899418400626902  3.1483264104055162e-08
    43   1  -0.0047882205728157967      4.4957011333274624  3.1528774457430903e-08
    44   1      1.5999736856214732      5.2933634729819321      1.7680896884782806
    45   1     0.72777910558231063      2.8578908597644328      1.7680896885877821
    46   1     0.86555886276743832       6.896785105888827  3.1584816570504935e-08
    47   1    0.099248279152902893      8.4688442284158629      1.7680896884613522
    48   1    -0.75099042029116803      6.0910258128022505        1.76808968848126
    49   1   -0.082947631872474711     0.34819219045130484      1.7680896879588781
    50   1    -0.85502692071459607      2.1178827161544609  3.1525230722624593e-08
    51   1      1.0289157797387973      13.063443066500701      5.3042690025372456
    52   1       7.238621015590903      10.238534755608175  3.1209159383588902e-08
    53   1      3.2828950030959847      10.238534755542579      5.3042690015238296
    54   1      4.8455180930899857       10.75195290136551  3.1564044903493938e-08
    55   1      6.3771369887606655      11.872111764812002      5.3042690029008055
    56   1      5.9055942399648904      14.476769032785825      5.3042690009433224
    57   1      7.3816692740737784      13.502012520188329    3.12586359925545e-08
    58   1      4.9846417923189925      13.063443059243502  3.1600903032087909e-08
    59   1      8.2959876971122792      15.378396445717938      5.3042690020846814
    60   1      7.6854561338910914      17.888889129032279      5.3042690028019992
    61   1      1.2500791434012992      16.914132616512504  3.2012404516084091e-08
    62   1      6.7711377103955472      16.012505204048733  3.1704153872024829e-08
    63   1      8.6899884189297278      19.518789884485244  3.1358206605253204e-08
    64   1     0.88979207989150366      10.751952894246763      5.3042690024561558
    65   1      2.4214109766246916      11.872111764809853   3.173395020578041e-08
    66   1      3.4259432613061067       13.50201252040381      5.3042690016561505
    67   1       2.815411699032988      16.012505202322721      5.3042690028245083
    68   1      4.3402616837231935      15.378396448152314  3.1384047872731447e-08
    69   1      1.9498682278033463      14.476769032816573   3.097303369128697e-08
    70   1      5.2058051555760274       16.91413261650084      5.3042690033456372
    71   1      4.7342624067616237      19.518789884489063      5.3042690020323082
    72   1      6.1267576037122913        18.3274585815618   3.146190744883376e-08
    73   1      3.7297301222377461      17.888889128795991  3.1754404863238492e-08
    74   1      2.1710315912804337      18.327458586490099      5.3042690022159942
    75   1      6.4278942777664163       7.728836086290988      3.5361793453465467
    76   1      5.6945463886224381      9.3068818920477465      5.3042690010861619
    77   1      6.2658813027327653    -0.16522595339164353      3.5361793454468757
    78   1      4.6835051176832101      2.8578908598400519      3.5361793454776391
    79   1      6.2901145206178022      3.6899418400988893      5.3042690022764711
    80   1      5.4168530069321621      1.2798450539677155      5.3042690031461568
    81   1      5.5556996977588957      5.2933634730436134      3.5361793454190709
    82   1      3.2047355917892122      6.0910258126156522      3.5361793454200146
    83   1      4.8212848749157784      6.8967851059227181       5.304269002511214
    84   1      3.9509377915302557      4.4957011332085912      5.3042690023590691
    85   1      4.0549742922055634      8.4688442304052636      3.5361793454136716
    86   1      1.7388203765046903      9.3068818920617904      3.5361793459048396
    87   1      2.4721682656506725      7.7288360862406558      5.3042690025516759
    88   1      3.8727783800431697     0.34819219041233496      3.5361793451523931
    89   1      1.4611269947945054      1.2798450539775235      3.5361793450135819
    90   1      3.1006990920441826      2.1178827174967338      5.3042690023560528
    91   1      2.3101552908121081    -0.16522595186418346      5.3042690023088266
    92   1      2.3343885084731677      3.6899418401144373      3.5361793454638839
    93   1  -0.0047882206312655886      4.4957011331675281      3.5361793454183807
    94   1      1.5999736856148943      5.2933634730178571       5.304269002358156
    95   1     0.72777910555020653      2.8578908598157629      5.3042690022486614
    96   1     0.86555886277156224      6.8967851059372398      3.5361793453623238
    97   1    0.099248279650352919      8.4688442295116104       5.304269002375162
    98   1     -0.7509904203280815      6.0910258126988923       5.304269002355281
    99   1   -0.082947632033467236     0.34819219042265598      5.3042690028775556
   100   1    -0.85502691991369195      2.1178827179172917      3.5361793454219379
