(written by ASE)

240 atoms
1 atom types

0.0      19.039428735234662  xlo xhi
0.0      20.732372368585921  ylo yhi
0.0      7.0723586277786685  zlo zhi

Atoms # atomic

     1   1      7.7030125051024436      12.570813767519354      2.8141736255030092
     2   1      4.6900677682137859      9.0788148548999477      3.2924295678828615
     3   1       9.169418115330128      13.324786989819666      4.9160508049813272
     4   1     0.71703346592246853      9.5047476079721083      1.4928783511161807
     5   1        4.00922007227586      10.673781646725079      1.5272231307001893
     6   1       3.732704895618244       12.68301003128863     0.20393912535257985
     7   1      5.6077047253336554      11.359217883517768      3.2842493575938962
     8   1      2.3912101442251594      10.195196497527759      3.3346720511353012
     9   1      5.3697295850931024      13.583046853174345      2.3191709527883373
    10   1       5.571417656177629      15.937084345110778      2.9967005105531395
    11   1      6.8931509308849233      14.335113667824841      4.3561301666188568
    12   1      3.3804598208477903      14.850291344084878      3.5241080740483333
    13   1      7.9030317396548169      17.265411319881792      2.5627537156357532
    14   1      7.4606099752943136       19.22009315561224      1.1508957810884943
    15   1      5.5635351320064315      18.263279661106729      2.2802460503042918
    16   1       17.38581916928403      10.566461442642105      1.5289638730831197
    17   1      18.121226586147586      8.8868753169608805      3.2434289629817692
    18   1      15.746774120166393       9.847855197102664      3.2720158772589296
    19   1      1.6057463368487599      11.807864373537088       1.415846422451754
    20   1      21.064206534665409       14.17579562753771      1.5153104099724419
    21   1      3.2797594959293845      12.454378928891792      3.0957353488401447
    22   1      19.133891698813777      11.218936937771693      3.2776420155187602
    23   1      1.8514376880539007      16.353722033265505     0.45334184725574023
    24   1      1.9646865656120671      18.785021727404956      1.1578547095874889
    25   1      3.2835730960669549      17.073043758247373      2.5322924749529063
    26   1      1.1281607258551598      15.967797617629891      3.0409049818011553
    27   1      4.0471440876043472      17.486922854339927     0.17992312923271908
    28   1      3.4168065336377764      19.476735932628632       3.045716175119602
    29   1      14.173145407087462      9.1650364986656712      1.4851963936729766
    30   1      15.046047469911313      11.593733371933212      1.6580314444851334
    31   1      16.671112460213195      12.155900891510013      3.3659348325144602
    32   1      13.338609954501621      10.789417693646058      3.2205752156589371
    33   1      18.265164696325382      12.927638496790895      1.6589876540640014
    34   1      16.369797223442511      14.572469301423704     0.77817524838468199
    35   1      17.899089818220901      14.803334102852846      3.2920596282532522
    36   1      15.494988529780256      14.187999571721003       2.996356390550579
    37   1      18.740292774936563      15.277068074872586     0.98163007321231732
    38   1      18.470643409576059      19.847536885818052      1.1733071531832915
    39   1      18.893564644751159      17.595138331694148      1.7654699882409446
    40   1      16.679480397327847       16.63096881509739      1.9943632537575229
    41   1      8.6751881074325095      8.6903975442363315      1.4798132179137355
    42   1      10.292580603712736       9.433193514260374      3.2976250939136555
    43   1      11.784165551458445      10.071762485505364       1.450452225180783
    44   1      12.031411117245362       12.47073968165275      1.4186001462632689
    45   1      13.365536434040907      13.184138732084245      3.3995813511229174
    46   1      11.105168758547826      11.994849489808054      3.7010879402096442
    47   1      14.101363420571367       13.60856640334886     0.78471987535337129
    48   1      12.130856985294386      17.122712487311457      1.0229606108673492
    49   1      14.304714875625013        15.9240366451161      1.7011187663479008
    50   1      12.098410275093572      14.843956429177057      1.9973671149623169
    51   1      15.177394473924858      18.311358121120971      1.0231372141418871
    52   1      16.835830589485379      18.966481043114239      2.9056024447797433
    53   1      13.657972758133837      17.819138385022121      3.0846386833525714
    54   1      6.2967062477070375      9.5652632885739877      1.4904090118121494
    55   1      7.8307309686038993      10.222306560744576      3.1935761384574581
    56   1      9.5646176138055683      11.198028760027942      1.7462719869601719
    57   1      7.6267274161903424      14.808680624814082      1.8715145954042682
    58   1      9.8909359277638096      13.678389329192251      2.3919389184436661
    59   1      9.8371468554798014      15.931365325452321      1.4222701418380677
    60   1      9.8547701201370206      18.308176140185299      1.3492414911085133
    61   1      11.380479036722319      18.991950264270269      3.0315119512750837
    62   1      9.1116125127383576      15.591235117030191       3.941562848466134
    63   1      12.885153067373379       19.45529056359462      1.1568102386265959
    64   1      8.9584798434134356      19.921669010768003      2.9375709830500334
    65   1      17.218900311626246      6.5098346376870433      3.1682485899424617
    66   1      17.920410721696634      4.8069301299640435      1.3415663276990604
    67   1      16.507289902839656      8.1972506911723571      1.4588612585175096
    68   1      17.707218967293901     0.71226796805729686      2.9824544866533382
    69   1      15.413564586675097       1.759110102489251      3.0148208716041394
    70   1      17.013217554630607      2.4242439865980114       1.265951184094648
    71   1      16.124592302399385    0.018785627444947359      1.2059722830159079
    72   1      16.311437841991232      4.1392313375056151      3.0916212671036449
    73   1      13.998670144558911      5.1554965253258445      3.1376637722776084
    74   1      15.610855668225037      5.8280929850227601      1.3857029893860067
    75   1      14.707095410041738       3.464097348866372      1.3108310289240801
    76   1      14.896644669373734      7.4989757289267169      3.2077216169257525
    77   1      12.578786633029528      8.4557670549835393       3.251757368939058
    78   1      13.289281737990482      6.8107704130680364      1.4175381866550449
    79   1      14.530494138150033    -0.62701472547462711      2.9598675773460164
    80   1      12.211858488904559      0.5262108784742775      2.9850475981428404
    81   1      13.814747702092784      1.0913945532418676      1.2314693144531557
    82   1      13.101109615083093      2.8251149984357142       3.062935560875744
    83   1      10.760474922185137      3.7906577979233891      3.0961362822145824
    84   1      12.379685522005349      4.4766906440736776      1.3453657927634561
    85   1      11.475311981787019      2.1587391993635148      1.2637290494378748
    86   1      11.674339346265668      6.1157293811479247      3.1756234157319012
    87   1      9.3407526412156638      7.0503643022092355      3.1897033273688611
    88   1      10.969254381136889      7.7419538901254823      1.4504619650254498
    89   1      10.043380704076542      5.4156882122460166      1.3727857241840136
    90   1      10.577803207279093    -0.13852639476581596       1.181641306735862
    91   1      9.8445705933234482      1.4865956627170598      3.0152016249351612
    92   1      7.4391297789552597      2.3693370610278226      2.9784756135644135
    93   1      9.1220206455121993      3.1008039029628569      1.2849866059885919
    94   1      8.2072463559981514     0.80494466099994033      1.2100463278806544
    95   1      8.3996210772230082      4.7126333540833985      3.0946377105644998
    96   1      6.0502950367428987      5.6878999136944408       3.117780001219451
    97   1      7.6980288571623863      6.3654971358212871      1.3886777780135857
    98   1      6.7607256836875864      4.0424361770796393      1.2876312890124486
    99   1      6.9842310349960712      7.9567166600490484      3.2155727507320062
   100   1      5.3429492062147901      7.3453040159513874      1.4116364124943586
   101   1      6.3740717977758754   -0.021100050598434013      2.7875801534505547
   102   1      4.1657388302785563      1.0781474145991465      2.9350423660056424
   103   1      5.7766325807318202      1.7086524544622277      1.1699148257014862
   104   1      4.6467199310209315    -0.78179113860844762     0.81837940312048563
   105   1      5.1198419405925462      3.3881312970165611      3.0120841386903319
   106   1      2.8033350043171197      4.4458835559371384      3.0716637930085517
   107   1      4.4212321292505639      5.0633500428779525      1.3169768685095826
   108   1      3.4864648688691773      2.7601855736181578       1.225985251203489
   109   1      3.7288232694942876      6.7706570764363674      3.1795437296237399
   110   1      1.4138632012759742      7.8573049187150765      3.2308126923845992
   111   1      3.0392482896830333      8.4345730125742922      1.4654374912671368
   112   1      2.1039578315525937      6.1288432343327495      1.3729631684170276
   113   1     0.99427341413035686    -0.22469341253088229      2.9135273641149984
   114   1      2.5513356087108692      0.4462856152777126      1.1645422430227896
   115   1      1.8713904926888834      2.1197624172469181      2.9832719119523019
   116   1    -0.42734637005472975      3.1140582014208085      3.0426070625716291
   117   1      1.1827723583969991      3.7932224776022574      1.2836614828658046
   118   1     0.26642566386487576      1.4495497596259741      1.2108245161335944
   119   1     0.49206230097424208      5.4870053448616032      3.1283366406491155
   120   1      -0.206015698833239      7.1714815394119995      1.4264734956291063
   121   1      6.9693516931774049      12.084800012497809      5.3358766471257084
   122   1      4.6982875358340221      9.0923443314786745      6.7944352957746981
   123   1      8.4047415359717785      12.858525558561237      7.3948151905496475
   124   1     0.71542697755538232      9.5884775297312892      5.0470593720145303
   125   1       4.123253598640237      10.886963227821528      5.2076724288872072
   126   1      4.7416823317001189      13.244390970240469      4.9253418778227926
   127   1      6.0942836984035127      11.809259876583566      7.7934351143370364
   128   1      2.3675183575109622      10.148662939307142      6.8343103042983966
   129   1      6.1673930720674894      14.047119876612976      6.8904589927072868
   130   1      4.8483856861359875      15.630500583024622      5.5656131836521938
   131   1      6.3475004768308363      16.438612947872127      7.6413722548511362
   132   1      4.1411958616097522      15.162917127389326      7.9769384579457929
   133   1      7.0099633109689545      16.690050491037944      4.9269836935471485
   134   1       7.193594885322824      19.051992735705277      4.3635753929704126
   135   1      6.0568264238786771      18.501079470571096      6.4109288000493017
   136   1      17.350780131316981      10.475421017311247      5.0387264997868613
   137   1      18.107724835682077      8.8385244499285847      6.7780304075136035
   138   1      15.771097106231027      9.9157490464355931      6.8206714679764744
   139   1      1.8797090673466543      11.962741713884306      5.2686615088881323
   140   1      20.099790339596758      13.613363164562282      3.6792037086391853
   141   1     0.59812653918666447      13.460097941878917      6.7852524762992914
   142   1      18.959540973584257      11.145446314998498      6.8209134622109584
   143   1      2.6479083227134756      14.376478530253666      5.8900541963130228
   144   1      1.3377769165878286      18.315281608321314      3.8052600261106204
   145   1      2.6027637396093128      16.709942533679669      5.1249941099294638
   146   1     0.42698409659773684      15.520928835667116      5.4504760874010882
   147   1       4.706370570669514      17.807972328515675      4.5156295016672354
   148   1      2.9275283571871391      19.110057460668646      5.8289247801608957
   149   1      14.179456302285349      9.2015400744211977      5.0437647194895545
   150   1      14.903085991905368      11.614712013656121       4.997371629698482
   151   1      16.569116353227979      12.333493428145353      6.8109598543797905
   152   1      13.480960285061304       10.91384497100764      6.9585623975572242
   153   1      18.313073558217035      12.685907799861413       4.997741673443282
   154   1      15.865266498610918       16.22329738086399      4.2259023855678715
   155   1      17.192635507005832      14.665411893571603      5.6188546991130499
   156   1      14.877471813218905      14.021913956224767      5.5108607519056987
   157   1       18.11067523337816      17.219596891636769       4.228325116535129
   158   1       18.46488540180815      19.729983828005206      4.6712772332002013
   159   1       19.54465365597941      18.038752311026713      6.2638722179179469
   160   1      17.424757708175694       16.80966599186717      6.6980072991956616
   161   1      8.6062849778016783      8.6330418737869756      4.9981470689576923
   162   1      10.211021295518847      9.3670415687145763      6.7651806232164233
   163   1      11.889311623001108      10.203548864268555         5.1414204357752
   164   1      11.320709359210166      14.431297782099412      4.4874085220126663
   165   1       12.64293958425765      12.808240560032292      5.7497910921760047
   166   1      10.633700430614601      11.750044887194836      6.6665895843595884
   167   1      13.534327269901006      15.536335275767231      4.0999498027196282
   168   1      11.380875080959811      16.670362467867623      3.5126967501088329
   169   1      15.039682600524198      16.347108942322141      6.4951706789408865
   170   1      12.792953995215711       15.18299563238125      6.5573461722430997
   171   1       15.25892653430147       18.44626827415544      4.8798148583972258
   172   1      16.945380180825236      19.134101135742764      6.5081605964260918
   173   1      12.987455808550584      17.412787974936538      5.5921944233272738
   174   1      6.3593968358966668      9.7131194542081882      5.0819810697103103
   175   1       7.970348806434095      10.407525451111871       6.941843290015882
   176   1      9.2551373805155759      10.946771274003654      4.9250639031020231
   177   1      8.3654692292576165       15.10874276268405      6.4189444776098465
   178   1      10.623459748887857      14.122608611126559      7.0038717712763061
   179   1      10.615248768546168      16.397100128145585      6.0166978354790253
   180   1      9.5198564438445388      18.080080726318737      4.5052590674553201
   181   1      11.162474764620692      18.844370093272936      6.4046866618718319
   182   1      8.4134583660358775      17.477468310411606      6.7373130558360179
   183   1        12.9184657443699      19.637896915859233      4.7531750333668272
   184   1      8.8897656313022004      19.838684746546829      6.3660992393856457
   185   1       17.21973279970619      6.4933750746218459      6.7081940818646961
   186   1      17.919197762857912      4.8170301570651741      4.8727530641738452
   187   1      16.495215156065836      8.1661425578045677      4.9902759402083889
   188   1      17.720305724273299     0.74792109285002251      6.5000995771465542
   189   1      15.420464740011997      1.7530343940839264      6.5640525532977074
   190   1      17.007907419393021      2.4383021827424614      4.7941675052543555
   191   1      16.126663154019937    0.037786579787967359      4.7410529454897237
   192   1      16.313047805505622      4.1301496636392576      6.6328207328359543
   193   1      14.001000207175728      5.1518760535867516      6.6777817431396223
   194   1      15.610331934816651      5.8228409933547614      4.9240421257639637
   195   1      14.709247370936852      3.4783625083652963      4.8532447014162932
   196   1      14.904842247903083      7.5141654547707981      6.7494718316230085
   197   1      12.580463679660939      8.4739892630345768      6.7730219895213786
   198   1      13.296623578608425      6.8173315101431076      4.9679549249911972
   199   1      14.518384181560208    -0.60137513172306378      6.5213719774511354
   200   1      12.189709870418708     0.47227864889834548      6.5235566766793998
   201   1       13.82830763547671      1.1512620799324393      4.7867402522960125
   202   1      13.101226304965705      2.8045928585262421      6.6045708518636737
   203   1      10.748771602812443      3.7779410819782169      6.6153057535125708
   204   1       12.38547530992537      4.4728596411153054      4.8920170572387223
   205   1      11.480929981492762      2.1436454346381475      4.8138343500326792
   206   1       11.66920529864267      6.1158079077259089      6.6980762803868297
   207   1      9.3381175652204309      7.0342968669130688      6.7249429020687135
   208   1      10.968981675790014      7.7651778745564242      4.9865550010408395
   209   1      10.038213393291839      5.4116399598323017      4.9019179293062232
   210   1       10.54945174416307    -0.16335491147602182      4.7232650598125314
   211   1       9.814384531759023      1.4502117682517257      6.5181421249828926
   212   1      7.4690888812219391      2.4188405763091749      6.5428008754486218
   213   1      9.0998503690986734      3.0709552886404117      4.8037994604791932
   214   1      8.1079987017850854     0.72543715921926633       4.676448124523616
   215   1      8.4042992824277611      4.7206786955062059      6.6360353183305731
   216   1      6.0605425326105316      5.7095597926344572      6.6586541153322596
   217   1      7.6934125800654973      6.3396006816763979      4.9243872453574085
   218   1      6.7601249265324235      4.0405646790273462      4.8188319293317265
   219   1      7.0187256340667714      8.0203696872785901      6.7622736481045127
   220   1      5.3668207786626878       7.399548244173058      4.9776647753338032
   221   1      6.5791943019367247     0.13253817019450595      6.5153618759233867
   222   1      4.1410883542537285      1.1070801168785438      6.4555985911207268
   223   1      5.8143301870692792      1.7427208831932997      4.7246173307048611
   224   1       4.957070401701543     -0.5365115685496703      4.8114640104916102
   225   1      5.1252073102707385      3.3990775775182192      6.5578384604730688
   226   1      2.8028098796676448      4.4424580050968991      6.6003256100067258
   227   1      4.4307162928125337      5.0798246819048298      4.8646797119844924
   228   1      3.4938537325093346      2.7702083825948196      4.7616584746249515
   229   1      3.7249082658198525      6.7767198501543477      6.6956538636382632
   230   1      1.4026273103796676      7.8355980782912109      6.7355527770423889
   231   1       3.048359699462118      8.5126991606244715      5.0290690905282949
   232   1      2.1058970201499259      6.1457162997985346      4.9138597753807316
   233   1     0.97593527541958169    -0.25380845988196166       6.466730941560086
   234   1      2.5479040195396654     0.46417475299542804      4.6844666950001903
   235   1      1.8630179563055964      2.1161655893899769      6.5179117993659359
   236   1    -0.42878422543875433      3.1220653737196677      6.5721591506615873
   237   1      1.1836852757829823      3.7885185560665975      4.8176418388771705
   238   1     0.26139170569670794      1.4229543186430829      4.7424756285830068
   239   1     0.48964502482681393      5.4829524092060051      6.6543509625025363
   240   1    -0.21257399166517954      7.1931978363204099      4.9531316096408915
