(written by ASE)

276 atoms
1 atom types

0.0      21.506762889276093  xlo xhi
0.0      21.329976545688393  ylo yhi
0.0      7.0723586277786685  zlo zhi

Atoms # atomic

     1   1      9.1527549288546037      11.759053743410007       1.740767067727601
     2   1      9.7709359948536658      15.409428144702954      1.7326393753241389
     3   1      9.4364354553566958      13.590164592869062      3.5296513214424228
     4   1      10.744998653458211      18.618613014357404       1.862054371994478
     5   1      10.032261247764051       17.09432386528924      3.5820638641623739
     6   1      5.7644159505878187      11.853574567138077      1.7811801159805547
     7   1      7.4462361926792715      11.780430129576642      3.5515945172824166
     8   1      7.7093923039269043      13.713066771672144      1.7588844712074756
     9   1      6.2907325245018733      15.789129627221202       1.772535825565519
    10   1      7.9770837093873803      15.611026299027115      3.5220465317924021
    11   1      6.0405899234247586      13.803899762739139      3.5346801757635133
    12   1      8.2994266729432944      17.694100991913622      1.7938702694110007
    13   1      6.4778589070391055      19.591565344198841       1.824506163829348
    14   1      8.2771607490830963      19.520397458128066      3.9121157485007116
    15   1      6.4242686822712995      17.680341535868131      3.5322420270155948
    16   1      2.4040231120584159      12.442356162495102      1.7692656390755261
    17   1      4.1112253525587859      12.084384790429366      3.5116494620940344
    18   1       2.141996635510008       10.70310219698599      3.4498580526661535
    19   1       4.362532219457802      14.001237198613014       1.774438089647643
    20   1      2.7721680112388545      15.958306724381622      1.7749528515868689
    21   1      4.5722495138627064      15.822389234828542      3.5324192891185411
    22   1      2.6263899059915183      14.143033213580932      3.5387430012612477
    23   1      4.6149902065563273      17.672260210342401      1.7792741065666584
    24   1       4.446080350290325      19.403532779167634      3.4857396148040407
    25   1      6.1869241713806602      19.526784349606118      5.2963621285607569
    26   1      2.8721866477328164       17.60687594712196      3.6017215709635613
    27   1     0.34294574374636755      10.990968291039595      1.7682905617977223
    28   1      20.251258113048301      12.918908678944875      1.7693731173816523
    29   1     0.58851101616702406      12.665768482837153      3.5242260552624978
    30   1      19.928024465241041      11.257612356921193      3.5354778147734134
    31   1     0.82917210503678451       14.38938517436226       1.773401222357021
    32   1      21.040027378186394      16.634640609851299      1.8003556258018281
    33   1      1.0495244207828094       16.08435214125166      3.5598245618993452
    34   1      20.569230397672985      14.648994422029938      3.5034801429483498
    35   1    0.081793604791604274      18.635898920788946      3.3305330275732188
    36   1    0.070165603676068944      20.527248712597405      1.7277771479016446
    37   1      21.857947121117849      20.217348103423795      5.4176936404870348
    38   1      18.113482896909353      11.393953539939933      1.7661775319702446
    39   1      16.833155732879536      13.580629531142923      1.7637982243900594
    40   1      18.456385190159196      13.191719423734295      3.5219429052747087
    41   1      16.362720904232084      11.530571360674982      3.5325266842794147
    42   1      18.922906003713905      15.058867661926676      1.7654084143945983
    43   1      17.672833062308413      17.209608227676153      1.7602169911912375
    44   1      19.351113334814503      16.908629596658326      3.5115813918461849
    45   1       17.25709087715061       15.38965265068685      3.5228224519649829
    46   1      19.646222435955828      18.811506031962217      1.7830677678079903
    47   1      18.220103372656805      19.130134314826769      3.6909712674677406
    48   1      12.799902753220195      11.074246231483269      2.1561949514664209
    49   1       14.83491670718757      12.180941073643696      1.7736359441096712
    50   1      13.450695228207543      14.500637881082014      1.6843625774388558
    51   1      15.197757472070755      14.018278734432235      3.5372750713234864
    52   1      13.033348658291928      13.004826228437112      3.5331976734087336
    53   1      15.545974077864649      15.810576634242619      1.7631488033136336
    54   1      14.247503335220838      17.985499259152039      1.7586638345265355
    55   1      16.067439991894215      17.530306607162423      3.5459468381465511
    56   1      13.813869211988047      16.210235019525125      3.5533601031398647
    57   1      16.659478103260831      19.426462329456829      1.7630340026629352
    58   1      14.882826238117097      19.577206980485041      3.4965487792927767
    59   1      10.867066101515118      11.637707081698965      3.5317293209770395
    60   1      11.301655328680871      13.233487493509445      1.7306731116758449
    61   1      11.547923465995078       14.99726417720832      3.5507659757544934
    62   1      12.058502621366202      16.609752585717985      1.7716550250907552
    63   1       12.48982656331456      18.389263652612328      3.5594534982682684
    64   1      12.815191219244412      20.075597950372039      1.6996283855890593
    65   1      17.985671092095345      9.5730090518397581      3.5357612422589337
    66   1      21.493511689843498      9.4726274811484039      3.5703276999602318
    67   1      10.730545940093066      9.9711360238990103      1.8030530033237331
    68   1       19.78682442839062      9.5175456712894668      1.7720253106690276
    69   1      5.3623683156754067      9.8021421769360444      3.4547578294845405
    70   1      7.2720448253599592      9.8846647523879394      1.7721135312243077
    71   1      9.0131488149152776      9.9196858296730852      3.5434927869521187
    72   1      3.3705040159492854      9.2561231610471655      1.7723433099327115
    73   1      14.421807122502241       9.533538301492694      3.5325624097167454
    74   1      21.182246983839445     0.53649478019709751      3.6965222264053232
    75   1      20.488291448720272      4.1125794719869546      3.4982831186056047
    76   1       20.79814106685944      2.1907805744580164      1.8272191401381093
    77   1      19.919593854369719      7.6848976490567331      3.5044932047311472
    78   1       20.23664211124883      5.9380739090152872      1.7555193582556705
    79   1      19.057827849656551   -0.046589962049797963      2.1062776715363718
    80   1       19.86466734812991    -0.86285910523142928   -0.049801841046838248
    81   1      18.927246777527298      2.0113241917448956      3.5428328077671773
    82   1      17.031450726229476      3.7174914705524404      3.5274813160130907
    83   1      18.739710621200405      3.8280229363930722      1.7446579603830366
    84   1      17.190747962614992      1.7464112481714424      1.7384788508685878
    85   1      18.461351670757892      5.7452887146502842      3.5191109423781981
    86   1      16.451879651224907      7.6667778294598019      3.5416340617898516
    87   1      18.161199701565419        7.69045850830544      1.7778301818471622
    88   1       16.78517677453009      5.6492226810600723      1.7575098181253874
    89   1      13.569386297729023     0.13580850193852959      3.5245001627151651
    90   1      15.225478916569218     0.03434336417615181       1.691243568266648
    91   1      15.414409580334626      1.8247025898531466      3.5271185956173623
    92   1      13.570291015332133      3.5725278913530532      3.5277057083498371
    93   1      15.331275344407416      3.6247424199927893      1.7498224877518835
    94   1      13.640995946890088      1.8389556070559816      1.8170479822273236
    95   1      15.125634557747093      5.5030731625045259      3.5329512770647069
    96   1       13.20810700007827      7.1048325029755421      3.5305996602977507
    97   1       14.87302150423209      7.3678567206467633      1.7358392122053372
    98   1      13.382781142847488      5.3013818987081214      1.7611266311335152
    99   1      12.893390691405116       8.744624467024817      1.6776581523048848
   100   1      1.1656354730821776      2.7237544330172705       3.556642693224128
   101   1     0.54482735070922461      6.2278678149105815      3.5015003805579026
   102   1      12.892302110859811     0.48714775089338208  -0.0044656730645471557
   103   1      11.857799850936427      1.6695402234461423      3.5259167762250514
   104   1      10.088559617109571      3.1682111568523701       3.545753688339246
   105   1      11.796328006447931        3.35652568788224      1.7699517403086535
   106   1       10.83690401888739     0.90459802834277081       1.500378405481372
   107   1      11.607481459422479      5.1025612848994255       3.532773163540841
   108   1      9.5176396510465207       6.524872890344688       3.540707193504256
   109   1      11.340928825547946      6.7780779920750991      1.7525109369331886
   110   1       9.826312762473588      4.7957209877171589      1.7367900653203909
   111   1      11.174063845299363      8.4401918581130335      3.5351084220384035
   112   1       9.173156619595904      8.1790309116304751      1.7710591045589872
   113   1      9.2202341333515285     0.83768897899768047      3.5008839380091095
   114   1       6.954623042072118      2.2831327426523997      3.5322411222619077
   115   1      8.6443156585435776      2.5757360985582189      1.7238473428796512
   116   1      7.3538594119829321     0.55879279848697561      1.8631979131099259
   117   1      8.0981380248929735      4.4937065976372921      3.5315248761557725
   118   1      6.0713038084211863      5.8936787098825834      3.5397165816500396
   119   1      7.7206348652157777      6.2221764757768936      1.7580375063143696
   120   1       6.481631978460995      4.0097012354148429      1.7572840180008111
   121   1      7.3651162437782656      8.0411015531798054      3.5395582638904783
   122   1      5.6470326614955155      7.8265210636254432      1.7712191639388475
   123   1      5.7220842377214804    0.084944538841864536      3.5144011725083235
   124   1      3.4961007300681404      1.4405672657979283      3.5418323640487701
   125   1      5.2071287736926068      1.8222680102051703      1.7600426050586049
   126   1      3.8743991998618328    -0.30348285329077151      1.7750824799598222
   127   1      4.8033310513770369      3.6437312547838676      3.5287815525425139
   128   1      2.6709526224192182       4.924944512017734      3.4667541917610722
   129   1      4.4412979080954385       5.444693424617955      1.7781097943719681
   130   1      3.0621931871146608      3.1732101669106592      1.7937427827197487
   131   1      4.0741527754256959      7.2724505314489205      3.5501606139684179
   132   1      2.0477335399976448      8.3783369923742494      3.9449205971448373
   133   1      2.4064261884353546      6.7919920367824744      1.7779802817422696
   134   1     0.83158431757328566       4.449090459118497      1.7899264050324195
   135   1     0.35508788675498881      7.9882739088629542      1.7646763678409638
   136   1      1.9910086772317921    -0.66156839020323033      3.5001730281350021
   137   1      1.6569222170696181      1.1050121221024753       1.793502337054651
   138   1      16.116362974696141      9.6389082901886205      1.6797242929671903
   139   1      9.1662124308352499      11.758940750655089      5.3359550750749491
   140   1      9.7349100257348748      15.331258965570191      5.3421651544482982
   141   1      9.4832606772766663      13.505764515623669    0.012570292180108255
   142   1      10.428865499442477      18.907343635400579       5.143926095543887
   143   1      10.044759607368883      17.253057841056908    -0.05912950622843953
   144   1      5.6984982243173423      11.777060586472038      5.2988142170682346
   145   1      7.4078182509075914      11.753379920822992  -0.0097405302466051485
   146   1      7.7079702019152121       13.69854972386616      5.3213373378390179
   147   1      6.2780694065815732      15.726346933952984      5.3129669575522334
   148   1      7.9863291200578823      15.615815508080541    0.023431697306943652
   149   1      6.0317954030129961      13.794615704367963    0.010579836744762946
   150   1      8.1738653274835151      17.432514255631794      5.2976154750046707
   151   1      8.3044464127631716      19.490428353323168      6.7341705696096845
   152   1      9.1112862660825957      20.306697345937103      1.8178914755135418
   153   1      6.4373667203835296      17.697427134659215    0.029610803717019737
   154   1      2.4547255734008191      12.339005963436232      5.3098486204787072
   155   1       4.119640022860489      12.075981743568398    0.032250437332027912
   156   1       2.140009268089206      10.699213903433458    0.090431485535994408
   157   1      4.3722530225856211      13.940765244529302      5.3074969983737539
   158   1      2.8169096217398226      15.871310254056732      5.3127426531524531
   159   1      4.5778932011823441      15.819096510665887    0.018267076292914672
   160   1      2.6293999381643269       14.14245591380196   0.0069631938686106152
   161   1      4.6610285479124842      17.619135777992017      5.3133295496955579
   162   1      2.8160450181637882      19.308077566860376      5.3159478371397206
   163   1      4.4720953335863376      19.409495494406908    0.076843138065112102
   164   1      2.8876164722614042      17.604878176724441   -0.048950266240430571
   165   1      0.4206823996951905      11.003646479170232      5.3053398572171009
   166   1       20.27102132634597      12.918965857274573      5.2997411034933526
   167   1     0.58754734838201905      12.665760942570406    0.015578619835680641
   168   1      19.926538083757901      11.264807240893697  -0.0029694040076771507
   169   1     0.85409970079895814      14.341277454482828      5.3076750345785007
   170   1      20.841971943178159      16.275645326667668      5.2946937394198708
   171   1      1.0429462474672793      16.087316421589584  -0.0018676023475649186
   172   1       20.57969393877018      14.648115504927372     0.03130182681598577
   173   1      1.1043707317086264      17.774261168198276      5.3145320526506037
   174   1      2.1389211167582043      18.956689753472045      1.7725554195354751
   175   1      21.590286167430538      18.539239482591292     0.26770934958381115
   176   1      18.118497624676944      11.402736795570124       5.300890016631973
   177   1      16.824686357293654      13.550160259689124      5.3007316364029204
   178   1      18.474016376603174      13.221662293391709    0.010051797842438712
   179   1      16.400414099035114      11.617317337416708  -0.0031294849913979855
   180   1      18.851510932431527      14.950127771946381      5.3089232475885142
   181   1      17.708005458804642       17.16070528357179      5.3082079357526561
   182   1      19.397694451291294      16.868103870496395    0.044245422674996676
   183   1      17.235014055128286      15.434137179849181    0.010805041462331405
   184   1      19.973616104974852      18.606149310107341      5.3395643412533804
   185   1      18.107242782956128      18.885044789347223   -0.095107475626487803
   186   1      12.801115077617386      11.065501515148496      4.8955276782449806
   187   1      14.827533957724244      12.171387763988958      5.2902876553322171
   188   1      13.424334180036283      14.518893989207223      5.3736940933328157
   189   1      15.194679216011028      13.999145039318856   -0.010020041117534286
   190   1      13.159807666643044      12.651846400278794  -0.0098906439133957802
   191   1      15.556712265074774      15.800106906473541      5.3116670258139411
   192   1      14.249482823307426       18.00327200433227      5.2986146575858957
   193   1      15.960510073103299      17.621570223169677   0.0080471491762910598
   194   1      13.815574669371118      16.270628071331807    -0.02565317367783676
   195   1      16.475462294151455      19.358894993450573      5.3260440329252958
   196   1      14.627780444520102      19.747321970935481  -0.0069929016482356571
   197   1      11.108469315764351      11.455564500723177   0.0034132889667184934
   198   1      11.298208778921351      13.215970604268991      5.3389478968812947
   199   1      11.584965771441128      14.994748004750718   -0.021836739206140338
   200   1      11.919016854216391      16.720083904167421      5.2838056334166987
   201   1      12.410303646352558      18.338826598408684   -0.025412646760530681
   202   1      12.744389186446661      20.105405540738321      5.3402774939642681
   203   1      18.025426280985346        9.55917368857253  -0.0040238808677024521
   204   1      21.483927344408816      9.4727025033941068   -0.034963336742180676
   205   1      10.740130241107176      9.9712110184022773      5.2701205742710142
   206   1      19.766530255837395      9.5241526246352279      5.2969554926163145
   207   1      5.3629815326911334      9.8049301366131445    0.088365356828959241
   208   1       7.232289634646035      9.8708293913950236      5.3046870380158335
   209   1      9.0334429634929752      9.9262928223293319  -0.0039356588226674089
   210   1      3.6684256751421351      9.9103001318062471      5.3078858685638624
   211   1      14.123885457788353      10.187715262603957  -0.0042536582974697802
   212   1      21.498380100116009     0.82522564941129761   -0.093964744809016398
   213   1      20.524317409754367      4.0344102954204439    0.035450281045516188
   214   1      20.785642779344172      2.3495145126880148      5.2583844396343062
   215   1      19.906136352911744      7.6847846565524547    0.027322584639128792
   216   1      20.189816889953807      5.8536738320598261      5.3107969590857627
   217   1      17.231240081064623     -0.1477266940069395   -0.056416494997405787
   218   1       19.03054217726886   -0.076559131404271438       4.928332574519831
   219   1      19.052808123548708      1.7497374388273563   -0.025780614385504007
   220   1      17.044113815426307      3.6547087833479237  -0.0044461668608596506
   221   1       18.73046522294862      3.8328121439711875      5.3184017388099072
   222   1      17.177649928580056      1.7634968442960559      5.3082062477434686
   223   1      18.462773785835495      5.7307716705153622   0.0092051785568588781
   224   1      16.517797382089288      7.5902638560964464   -0.013090464306189058
   225   1      18.199617646923532      7.6634083033611224      5.2888537612441437
   226   1      16.793971296997853      5.6399386228586188      5.3057681003227426
   227   1      15.199464966264753    0.040305177414237267     -1.7176464105621778
   228   1      16.940305128046141   -0.082945813823069411      3.5440861792680631
   229   1      15.368372279116699      1.7715776857231984   -0.011184430416487263
   230   1      13.525548725669548      3.4855327331295594  -0.0068633236310344271
   231   1      15.325631626168237      3.6214496675677763      5.3080290927381242
   232   1      13.625565356769997      1.8369585864160136      5.2387184792920864
   233   1      15.115913711447419      5.4426011699804455   -0.006348434937136313
   234   1      13.157404535447343      7.0014824568943688   -0.001175997182062082
   235   1      14.864606829623847      7.3594536765874299      5.3287988200243062
   236   1      13.379771108771868      5.3008045898555318        5.30170511741089
   237   1      12.895378064164563      8.7407361479759853      5.3905902479437975
   238   1      1.3051212496693838      2.8340856298892394  -0.0035654565157988015
   239   1     0.54827389763159073      6.2103509208100904    0.037416541465187032
   240   1      10.823547028149719     -1.0834100732846468      7.1126711854886473
   241   1      10.835174587534899      0.8079388238602917     -1.5624419900140203
   242   1      10.286647401953049      2.8091978938518483   -0.032266059247165794
   243   1        11.8029071307965      3.3594895594718053      5.2806299113774919
   244   1      11.104566654686208    -0.77350850759826228      3.4227547192703405
   245   1      11.582553965279081      5.0544523571172357  -0.0053115321056244119
   246   1       9.497876525664573      6.5249301715488466  -0.0012834613925337113
   247   1      11.341892498578536      6.7780704550663167      5.3162223149535848
   248   1      9.8158491128983663      4.7948421390228404      5.3369657461014688
   249   1      11.096327231662373      8.4528699493569306 -0.00020091113350634583
   250   1      9.1746429890950534      8.1862257899905035      5.3049704130588662
   251   1      8.8928413600044056     0.63233220997660589   -0.014978284985632143
   252   1       6.919450015393406      2.2342298485544512   0.0078716977291175324
   253   1      8.5977336731815672      2.5352096452128818      5.3288642598468243
   254   1      7.4667214785724809     0.31370396450147964      5.1494769147856072
   255   1      8.1695241764044688      4.3849709467946925    0.002681341292282501
   256   1       6.079774389974423      5.8632088912743621   0.0042914655156474643
   257   1      7.7030037811145355       6.252119426961138      5.3185057043126012
   258   1      6.5037079784085536      4.0541845817936402      5.3176265067181934
   259   1      7.3601014787277546      8.0498848249160559   0.0019121146138334148
   260   1      5.6093394530712164      7.9132670580834006      5.3079215867757537
   261   1      5.9060980884877718    0.017376648610014263   0.0050569136298973345
   262   1        3.49412116218013      1.4583403298996376   0.0094274924227746425
   263   1      5.3140647977271307      1.9135403102480999       5.294501511197871
   264   1      4.1294240659208432    -0.13339704730719515      5.3439003288542581
   265   1      4.7925928585755333      3.6332614722529573   0.0049405577316591447
   266   1      2.6973137178579463      4.9432006372371422    0.083727075175544202
   267   1      4.4443761542835531      5.4255597710124741      5.3031731155010666
   268   1      3.0604877072488152      3.2336033182431887      5.2870881865270967
   269   1      4.0815352336310227      7.2628973599866926  -0.0055462989819953902
   270   1      2.0465213459072378      8.3695921919653387    -0.38810529388002257
   271   1       2.279967215061657       6.439012148831929      5.3072506276371954
   272   1     0.79454203355245367      4.4465742271944926      5.2896822977466798
   273   1      0.1136846652362558      7.8061313301582826      5.3087189418259504
   274   1      2.0618108216082707    -0.63176093456567595     0.06845872178910023
   275   1      1.7364451520964739      1.0545749794090085      5.2809947628869383
   276   1      16.115749759414143      9.6416962492260687      5.3856904483640413
