(written by ASE)

224 atoms
1 atom types

0.0      18.030518817995052  xlo xhi
0.0      20.597802190326462  ylo yhi
0.0      7.0723586277786685  zlo zhi

Atoms # atomic

     1   1      14.439653875898376      10.849264518884832   -0.031573381845263745
     2   1      14.777955531626942      14.395506105744698   -0.031573003757610331
     3   1      14.589564613509744       12.59727128524537      1.6864303886863223
     4   1      15.029466965570908      16.172262894180356      1.7516662687419118
     5   1      12.445501567743609      9.3427708500488631   -0.031572845688105484
     6   1      10.736164465879858      11.267733233643209   -0.031573054215528647
     7   1      12.478459499727542      11.126005014446537       1.714573890141202
     8   1       10.56251244886065      9.3084477250374533      1.6658801555402514
     9   1      12.809014183594917      12.852522782692597    -0.03157289533786152
    10   1      11.382049643518688      15.066175099486491   -0.031572895337917947
    11   1      13.082309359265706      14.703122640062224      1.6959730580092383
    12   1      11.108754467847868      13.215575242116827      1.6959730580092374
    13   1      13.454899361233744      16.650964648535883   -0.031573054215637997
    14   1      11.745562259369963      18.575927032130227   -0.031572845688378086
    15   1      13.628551378252951      18.610250157141635       1.665880155540246
    16   1      11.712604327385824      16.792692867732605      1.7145738901413135
    17   1      8.5795323718496093       9.692609004621298   -0.031572930082388047
    18   1      7.4721197079743868      12.031076749828873   -0.031572870323754228
    19   1       9.161596861542975       11.74643498799886      1.7516662687418607
    20   1      7.1955786299789963      10.538957741356091       2.169081380627214
    21   1      9.4131082954866496      13.523191776434388   -0.031573003757618574
    22   1      7.7036847101416823      15.887621132350219   -0.031572870323707383
    23   1      9.6014992136039812      15.321426596934025      1.6864303886865795
    24   1      7.5879022090580417      13.959348941089548      1.5584088606022086
    25   1      9.7514099512152352      17.069433363294241    -0.03157338184421455
    26   1      7.7863188412519637       19.69411324435038      1.6400121722161551
    27   1      10.018080747721898      18.526591051519549      1.7984048999694868
    28   1      7.9802257881365595      17.379740140822694      2.1690813806272056
    29   1      3.4302421587461067      9.3427708500488649   -0.031572845688444061
    30   1      5.4243944669008304      10.849264518884826   -0.031573381844081559
    31   1      3.7937547745973963      12.852522782692605   -0.031572895337879672
    32   1      5.5743052045120907       12.59727128524502       1.686430388686651
    33   1      3.4632000907303082      11.126005014446473      1.7145738901413639
    34   1      5.7626961226294231      14.395506105744698   -0.031573003757664198
    35   1       4.439639952236214      16.650964648535883   -0.031573054215641758
    36   1      6.0142075565733997       16.17226289418036      1.7516662687419124
    37   1      4.0670499502681139      14.703122640062199      1.6959730580092505
    38   1      6.5962720462664732      18.226088877557796    -0.03157293008237598
    39   1      4.6132919692554211      18.610250157141635      1.6658801555402412
    40   1      5.1577236703945752      9.3921068306601114      1.7984048999696529
    41   1      17.594791780847132       9.692609004621298   -0.031572930082334624
    42   1       1.547253039863153      9.3084477250374373      1.6658801555402416
    43   1      1.7209050568822983      11.267733233643213   -0.031573054216008076
    44   1     0.39784888648913608      13.523191776434381   -0.031573003757838725
    45   1       2.093495058850666      13.215575242117005       1.695973058009272
    46   1     0.14633745254387803      11.746434987998198      1.7516662687421454
    47   1      2.3667902345211598      15.066175099486488   -0.031572895337886236
    48   1     0.73615054221770604      17.069433363294241   -0.031573381844110966
    49   1      2.6973449183882914      16.792692867732605      1.7145738901413055
    50   1     0.58623980460646374      15.321426596934032      1.6864303886865695
    51   1      2.7303028503724489      18.575927032130224   -0.031572845688367414
    52   1      1.0028213387243214      18.526591051519453       1.798404899969404
    53   1      16.210838038979208      10.538957741357727      2.1690813806272335
    54   1      16.487379116971891       12.03107674982887   -0.031572870323494179
    55   1      16.603161618055477      13.959348941089447      1.5584088606023181
    56   1      16.718944119139216       15.88762113235023   -0.031572870323720706
    57   1         15.611531455264      18.226088877557793   -0.031572930082376202
    58   1      16.995485197134112      17.379740140822712      2.1690813806271967
    59   1      16.801578250249484       19.69411324435038      1.6400121722161476
    60   1      14.172983079389953      9.3921068306569691      1.7984048999691913
    61   1      17.698952315952084      2.9492534345440165   -0.031572946597953809
    62   1      18.158707638913278      1.1616747670616434      1.7193198039984772
    63   1      16.812610318699893      6.4823869406992518   -0.031572913081786606
    64   1      17.234498904838357      4.7528577164940282      1.7451801535260643
    65   1      16.404744985861658      8.2245846378283289      1.6400121722160239
    66   1      16.393712917411236     0.83850875115336254   -0.031572913081886873
    67   1      14.272094132795132      2.2244867774341324   -0.031572913276625897
    68   1      15.971824331272762      2.5680379753585969      1.7451801535260678
    69   1       14.73029600127186     0.34602008722124822      1.7181576359023278
    70   1       15.50737092015904       4.371642257308606   -0.031572946597954586
    71   1      13.277503351210788      5.8330856557439681   -0.031573002225366534
    72   1      15.047615597197867      6.1592209247910761      1.7193198039984869
    73   1      13.788948611967687      4.0441351534522436      1.7411622840481662
    74   1      14.620829950960413      7.8963930435985175   -0.031572626947123796
    75   1      12.756846297291975      7.5311013094273243      1.7481436759158793
    76   1      13.110899534477936  -0.0081273613524929893   -0.031573069775245662
    77   1      10.913560475902814      1.4878100361086644   -0.031573002225229505
    78   1      12.629314596173456      1.8762227310938999      1.7399378961460088
    79   1      11.434217529822844    -0.21020561757333597      1.7481436759158322
    80   1      12.095531913556799      3.6604478459263095   -0.031572920747425119
    81   1      9.9189696943184682      5.0964089144184861    -0.03157291327653889
    82   1      11.561749230939835      5.4446729607583233      1.7399378961460124
    83   1      10.402115215145953      3.2767605384004379      1.7411622840481638
    84   1      11.080164292635688      7.3290230532051179   -0.031573069775564962
    85   1      9.4607678258416996      6.9748756046313565      1.7181576359023432
    86   1      9.5702338761532015    -0.57549735174592398   -0.031572626947973685
    87   1       7.378453508413708     0.83850875115336287   -0.031572913081891203
    88   1      9.1434482299157498      1.1616747670616303      1.7193198039984845
    89   1      8.6836929069545601      2.9492534345440169    -0.03157294659796666
    90   1      6.4921115111615135      4.3716422573086042   -0.031572946597957292
    91   1      8.2192394958408439      4.7528577164940264      1.7451801535260709
    92   1      6.9565649222752386         2.5680379753586      1.7451801535260663
    93   1      7.7973509097023657      6.4823869406992589   -0.031572913081910035
    94   1       5.605570541962873      7.8963930435985397   -0.031572626948193079
    95   1      7.3894855768641206      8.2245846378287766        1.64001217221619
    96   1      6.0323561882003105      6.1592209247909642      1.7193198039984907
    97   1      4.0956401254804007  -0.0081273613524983218   -0.031573069775227572
    98   1      5.7150365922743225     0.34602008722124944      1.7181576359023265
    99   1      5.2568347237976063      2.2244867774341319   -0.031572913276625744
   100   1      3.0802725045592743      3.6604478459263139    -0.03157292074746313
   101   1      4.7736892029701643      4.0441351534522498      1.7411622840481649
   102   1      3.6140551871759157      1.8762227310938737      1.7399378961460041
   103   1      4.2622439422132574      5.8330856557439619   -0.031573002225196774
   104   1      2.0649048836381381      7.3290230532051135   -0.031573069775195278
   105   1       3.741586888292967      7.5311013094256545        1.74814367591583
   106   1      2.5464898219426839      5.4446729607588074      1.7399378961460055
   107   1      18.585493285150726    -0.57549735174592098   -0.031572626947960571
   108   1      2.4189581208253688    -0.21020561757327871      1.7481436759158211
   109   1      1.8983010669052904      1.4878100361086597   -0.031573002225215856
   110   1      1.3868558061483784      3.2767605384003651      1.7411622840481653
   111   1     0.90371028532094333      5.0964089144184932   -0.031572913276643237
   112   1     0.44550841684416542      6.9748756046313884      1.7181576359023123
   113   1      14.241102817882291      11.053508191609637      3.5046071840829245
   114   1      14.693365475390403      14.367162248669379      3.5046064047650427
   115   1      14.589564527664969      12.597271072092797      5.3227821827317303
   116   1      15.029465924690129      16.172262450456188      5.2575466415371057
   117   1      12.395413850644678      9.3515773619043649      3.5046062486799241
   118   1      10.729772769674224      11.192923772383624      3.5046064432736754
   119   1       12.47845967673913      11.126004952738082       5.294638779037248
   120   1      10.562512425103884      9.3084477339231526       5.343332582708757
   121   1      12.708668358120164      12.892074765950248      3.5046063468437736
   122   1      11.482395468993397      15.026623116228874      3.5046063468437323
   123   1      13.082309620908237      14.703122745613545      5.3132396881290465
   124   1      11.108754206205408      13.215575136565572       5.313239688129034
   125   1      13.461291057439377       16.72577410979547      3.5046064432737287
   126   1      11.795649976468914      18.567120520274727      3.5046062486802216
   127   1      13.628551402009721      18.610250148255936      5.3433325827087517
   128   1      11.712604150374688      16.792692929440943      5.2946387790373546
   129   1      8.8748744999170359      9.0541468588660408      3.5046063625206196
   130   1      7.3359196547561529      12.532037499919847      3.5046061553377186
   131   1      9.1615979024231997      11.746435431722777       5.257546641537056
   132   1       7.195576874761338       10.53895665648963      4.8401313837357893
   133   1      9.4976983517231961      13.551535633509701      3.5046064047650436
   134   1       7.839884763359934       15.38666038225926      3.5046061553376235
   135   1      9.6014992994485233      15.321426810086013      5.3227821827319488
   136   1       7.587902209058023      13.959348941089527      5.4508039879737851
   137   1      9.9499610092313802      16.865189690569334      3.5046071840807493
   138   1      7.7863188576358624      19.694112942328108      5.3692004687991108
   139   1      10.018079328208309      18.526588944722082      5.2108076515655206
   140   1      7.9802275433551966      17.379741225689713      4.8401313837357796
   141   1      3.3801544416471696      9.3515773619043632      3.5046062486802514
   142   1      5.2258434088847032      11.053508191609723      3.5046071840802266
   143   1      3.6934089491226794      12.892074765950214      3.5046063468436381
   144   1      5.5743051186675627      12.597271072093141      5.3227821827320305
   145   1      3.4632002677413429      11.126004952738143      5.2946387790373972
   146   1      5.6781060663928669      14.367162248669381      3.5046064047650525
   147   1      4.4460316484418474       16.72577410979547      3.5046064432737354
   148   1      6.0142065156926057      16.172262450456191       5.257546641537103
   149   1      4.0670502119107725      14.703122745613577      5.3132396881290544
   150   1      6.3009299181990421      18.864551023313048      3.5046063625206214
   151   1      4.6132919930121963      18.610250148255936       5.343332582708749
   152   1      5.1577250899074079      9.3921089374565074       5.210807651565684
   153   1      17.890133908914571      9.0541468588660408      3.5046063625206054
   154   1      1.5472530161063227      9.3084477339231722      5.3433325827087463
   155   1       1.714513360676674      11.192923772383629       3.504606443273953
   156   1     0.48243894272566329      13.551535633509681      3.5046064047651466
   157   1      2.0934947972074847      13.215575136565374      5.3132396881290909
   158   1     0.14633849342750532      11.746435431723542      5.2575466415373704
   159   1      2.4671360599958732      15.026623116228878       3.504606346843703
   160   1     0.93470160023385718      16.865189690569348      3.5046071840807858
   161   1      2.6973447413771696      16.792692929440939      5.2946387790373466
   162   1     0.58623989045099001      15.321426810086002      5.3227821827319453
   163   1       2.780390567471382      18.567120520274724      3.5046062486802416
   164   1      1.0028199192107885      18.526588944722143       5.210807651565414
   165   1      16.210836283755821      10.538956656487732      4.8401313837358311
   166   1      16.351179063753683      12.532037499919914      3.5046061553370302
   167   1      16.603161618055644       13.95934894108963      5.4508039879738588
   168   1      16.855144172357448       15.38666038225924      3.5046061553376244
   169   1      15.316189327196566      18.864551023313048      3.5046063625206223
   170   1      16.995486952352735      17.379741225689727       4.840131383735784
   171   1      16.801578266633399      19.694112942328093      5.3692004687991028
   172   1      14.172984498907336      9.3921089374598594      5.2108076515651147
   173   1      17.699501270944531      2.9281179765416869      3.5046063692892191
   174   1      18.158707659118853      1.1616748451497929      5.2898929448661152
   175   1      16.837227099193726      6.5701984298529297       3.504606356702987
   176   1      17.234498908240894      4.7528577126629923      5.2640325840108417
   177   1      16.404744969477687      8.2245849398514483      5.3692004687989572
   178   1      16.369096136917403     0.75069726199968467      3.5046063567030159
   179   1      14.280291259688441      2.2019910602370039      3.5046063351918639
   180   1      15.971824327870239      2.5680379791896271      5.2640325840108426
   181   1      14.730295923343766     0.34602008841603882      5.2910551025017609
   182   1      15.506821965166591      4.3927777153109364      3.5046063692892151
   183   1         13.285093154558      5.8393209873724086      3.5046064217669262
   184   1      15.047615576992241      6.1592208467027287      5.2898929448661338
   185   1      13.788948646906487       4.044135206380437      5.2680504556058372
   186   1      14.727481942792739      7.8438857680298009      3.5046060722279631
   187   1      12.756845306077606      7.5311001974166869      5.2610691058034806
   188   1      13.163198971452152   -0.047189975347608347      3.5046064611351064
   189   1      10.905970672555595      1.4815747044802172      3.5046064217667974
   190   1       12.62931435108494       1.876222402704014      5.2692748463399131
   191   1      11.434218521034648     -0.2102045055655844      5.2610691058034273
   192   1      12.095531913556799      3.6604478459263108      3.5046063421427491
   193   1      9.9107725674251643       5.118904631615619      3.5046063351917711
   194   1      11.561749476028993      5.4446732891490459      5.2692748463399157
   195   1      10.402115180207071      3.2767604854721273      5.2680504556058381
   196   1      11.027864855661454      7.3680856672002317       3.504606461135328
   197   1      9.4607679037698666      6.9748756034365922      5.2910551025017716
   198   1      9.4635818843208686    -0.52299007617718762      3.5046060722286487
   199   1      7.3538367279198731     0.75069726199968501      3.5046063567030199
   200   1      9.1434482501213363       1.161674845149808      5.2898929448661258
   201   1      8.6842418619470081      2.9281179765416874      3.5046063692892262
   202   1      6.4915625561690691      4.3927777153109355       3.504606369289216
   203   1      8.2192394992433613      4.7528577126629949      5.2640325840108479
   204   1      6.9565649188727061      2.5680379791896253      5.2640325840108408
   205   1      7.8219676901961988       6.570198429852935      3.5046063567030128
   206   1      5.7122225337952095      7.8438857680297946      3.5046060722287375
   207   1      7.3894855604802103      8.2245849398509101      5.3692004687991419
   208   1      6.0323561679947497       6.159220846702838      5.2898929448661285
   209   1      4.1479395624546278   -0.047189975347605238      3.5046064611351007
   210   1      5.7150365143462469     0.34602008841603915      5.2910551025017529
   211   1      5.2650318506909155       2.201991060237003      3.5046063351918697
   212   1      3.0802725045592725      3.6604478459263099      3.5046063421427904
   213   1      4.7736892379089602      4.0441352063804299       5.268050455605839
   214   1      3.6140549420874133      1.8762224027040144      5.2692748463399095
   215   1      4.2698337455604776      5.8393209873724086       3.504606421766761
   216   1      2.0126054466639127      7.3680856672002291      3.5046064611350798
   217   1      3.7415858970816691      7.5311001974184801      5.2610691058034247
   218   1       2.546490067031066      5.4446732891485343      5.2692748463399113
   219   1      18.478841293318389    -0.52299007617718618      3.5046060722287331
   220   1      2.4189591120371015    -0.21020450556560646      5.2610691058034185
   221   1       1.890711263558071      1.4815747044802177      3.5046064217667907
   222   1      1.3868557712096004      3.2767604854722037      5.2680504556058327
   223   1     0.89551315842763701       5.118904631615619      3.5046063351918866
   224   1     0.44550849477238341      6.9748756034365584      5.2910551025017494
