(written by ASE)

228 atoms
1 atom types

0.0       17.68089656944667  xlo xhi
0.0      22.748031977072838  ylo yhi
0.0      7.0723586277786685  zlo zhi

Atoms # atomic

     1   1       1.637585153239004      11.522748016550921      1.7680981279450938
     2   1     0.15637805667810026      8.5984236389332214  9.2629195078311405e-06
     3   1      14.266544802110175      10.367276444621384      1.7680981307183843
     4   1       15.43046261829857      9.0491079423231096  8.4643952209652303e-06
     5   1      12.940845134423331      9.1006714394915438   8.469584872391178e-06
     6   1      16.918321808873056      10.367276442794862      1.7680981283461428
     7   1      16.486285334053761      13.188342505437356      1.7680981282494275
     8   1     0.15637805052840109      12.136129247400206  9.2629195025821552e-06
     9   1      15.430462612918623      11.685444945722809  8.4643952210888869e-06
    10   1       1.238095009225413      13.865980239449865      1.7680981278419938
    11   1     0.90497402813496008      16.325499264296013      1.7680981279034731
    12   1      17.512353146810309       14.75998365150002  8.2010991077703387e-06
    13   1      8.9968263396508039       8.598423638711564      1.7680988459552056
    14   1      11.743109016719922      10.367276443348629      1.7680971103786454
    15   1      11.525088154534625      12.832932906305379      1.7680988216024933
    16   1      12.940845128673763      11.633881448816902  8.4695848711138049e-06
    17   1      10.478035023375002      11.522738752503757  8.4709995695499898e-06
    18   1      14.028739854009469      12.960632827198911      1.7680981164934164
    19   1      13.678747262124759      15.519707754965619      1.7680981403505365
    20   1      15.088696346902148      14.348385630508751  8.4880162436085166e-06
    21   1      12.602019208199357       14.16024796078489  8.4701867539700784e-06
    22   1       16.13804169110827      15.832744611635718      1.7680981289070228
    23   1      15.782888405291406      18.351768536018426      1.7680981273880039
    24   1      17.185302745908434      17.326381255630199  8.4893152066102886e-06
    25   1      14.729774773697217      16.921789807981202  8.4625488499602274e-06
    26   1     0.60195658812872932      18.784138246122513      1.7680981279853381
    27   1      1.6928162846067594      20.252440854410814  8.4705998638419252e-06
    28   1      16.875108980230078      19.759709683711307  8.4692517589698384e-06
    29   1       4.100397020918563      9.1006712292438188      1.7680981266612426
    30   1      6.5900143429500408      9.0491079341674343      1.7680981219570169
    31   1      6.5900143375700946      11.685444953878488       1.768098121957018
    32   1      8.0778736417865922      10.367276442794864  8.4714426448253066e-06
    33   1       5.426096518654016      10.367276444621387  8.4740556436314453e-06
    34   1      8.9968263335011009      12.136129247621865      1.7680988459551985
    35   1      8.6719048601163564      14.759983650907387      1.7680978832345955
    36   1       10.07854242793251      13.865983512926356  8.4708847474351796e-06
    37   1      7.6458369831364354      13.188342597422057  8.4713313723792204e-06
    38   1      11.161884102629427      15.280818079504792      1.7680980283673657
    39   1      10.820104066263497       17.77027001736678      1.7680981392907462
    40   1      12.237415030700062      16.652171367398278  8.4711200539917205e-06
    41   1      9.7454223575518633      16.325498931796883  8.4709522898148414e-06
    42   1      13.306568188930829      18.004222082060561       1.768098122060801
    43   1      13.017487006895404      20.446099967631707      1.7680981287296726
    44   1      14.395754532003913      19.350359909600598  8.4724418598311874e-06
    45   1      11.917680100196092      19.094976218670915  8.4710393089115681e-06
    46   1      2.9026607321017623      10.367276443348629   7.348686189390806e-06
    47   1      4.1003970151689897      11.633881659064636      1.7680981266612468
    48   1      3.7615708311201534      14.160247875783513      1.7680981272084193
    49   1      5.1882915439716308      12.960632826527769  8.4583680747513091e-06
    50   1      2.6846398720116689      12.832932907371857  9.2360593644504444e-06
    51   1      6.2482480591444105       14.34838563793282      1.7680981433755896
    52   1      5.8893264852932354       16.92178979454367      1.7680981202824189
    53   1      7.2975933907098973      15.832744636495981  8.4720590167143683e-06
    54   1      4.8382989859931627      15.519707757185454  8.4846830437899707e-06
    55   1      8.3448544610446387      17.326381255531306      1.7680981445525248
    56   1      8.0346606952744466       19.75970968373495      1.7680981263619082
    57   1      9.4424048654899497      18.784138276852261  8.4710429494448419e-06
    58   1      6.9424401327128287      18.351768520231758  8.4703845789242061e-06
    59   1      10.533264568921393      20.252440855228922      1.7680981275840164
    60   1      2.3214358175114094      15.280818079488455  8.3611729826794586e-06
    61   1      3.3969667283763241      16.652171314533611      1.7680981280551413
    62   1      3.0772318187205832        19.0949762334075      1.7680981279819452
    63   1      4.4661199045217925       18.00422207993757  8.4645095345370054e-06
    64   1      1.9796557812842845      17.770270017616465  8.4835121063566354e-06
    65   1       5.555306246688537      19.350359911921256      1.7680981292541518
    66   1      4.1770387214645268       20.44609996766404  8.4718642536137439e-06
    67   1      1.6375851593433488      9.2118048674949318      1.7680981279450951
    68   1      10.478035029479345       9.211814131542134  8.4709995683108382e-06
    69   1      17.512353158945128      5.9745692335477489  8.2010991033146049e-06
    70   1      16.486285342847093      7.5462103803875733      1.7680981282494228
    71   1      16.875109001898512     0.97484319804210207  8.4692517574863957e-06
    72   1      17.185302765113981       3.408171627706492   8.489315204410566e-06
    73   1      14.729774791521692      3.8127630806927253  8.4625488532416449e-06
    74   1      16.138041705972075      4.9018082741671627       1.768098128907023
    75   1        15.7828884264039       2.382784349337884      1.7680981273879999
    76   1      15.088696358042727      6.3861672575231534  8.4880162471988436e-06
    77   1      12.602019220127653      6.5743049265048619  8.4701867539010723e-06
    78   1      14.028739862708635      7.7739200620683535      1.7680981164934169
    79   1      13.678747276648414      5.2148451338025508      1.7680981403505343
    80   1      2.6846398814430454      7.9016199787714019  9.2360593701497378e-06
    81   1      14.395754554696273      1.3841929803012292  8.4724418647439344e-06
    82   1      11.917680123048717       1.639576665884577  8.4710393072735775e-06
    83   1       13.30656820963762      2.7303308073711983      1.7680981220607972
    84   1      13.017487034294584     0.28845292374847381      1.7680981287296731
    85   1      12.237415047893229      4.0823815187449375  8.4711200557526799e-06
    86   1      9.7454223744917492      4.4090539515246725  8.4709522917273791e-06
    87   1      11.161884117084563      5.4537348054416137      1.7680980283673673
    88   1      10.820104086549517      2.9642828651827919       1.768098139290742
    89   1       10.07854243954824      6.8685693711108131   8.470884746465149e-06
    90   1      7.6458369919297668       7.546210288402869  8.4713313728495355e-06
    91   1      8.6719048722511758      5.9745692341403753      1.7680978832345908
    92   1      10.533264594860459     0.48211202499542549      1.7680981275840193
    93   1      9.4424048876780624      1.9504146041534975  8.4710429521382458e-06
    94   1      6.9424401538253253      2.3827843651245577   8.470384579521798e-06
    95   1      8.3448544802501896      3.4081716278053884       1.768098144552523
    96   1      8.0346607169428843      0.9748431980184592      1.7680981263619071
    97   1      7.2975934055737062      4.9018082493068995  8.4720590137372897e-06
    98   1      4.8382990005168161      5.2148451315827185  8.4846830431600645e-06
    99   1      6.2482480702849879      6.3861672500990867      1.7680981433755893
   100   1      5.8893265031177142      3.8127630941302542      1.7680981202824189
   101   1      5.1882915526707931       7.773920062739494  8.4583680751966621e-06
   102   1      11.525088163966004      7.9016199798378848      1.7680988216024947
   103   1      3.7615708430484527      6.5743050115062314      1.7680981272084169
   104   1      4.1770387488637031     0.28845292371614745  8.4718642560654283e-06
   105   1      5.5553062693808943      1.3841929779805751       1.768098129254152
   106   1      4.4661199252285861      2.7303308094941854  8.4645095335545522e-06
   107   1      1.9796558015703003      2.9642828649331099  8.4835121032395762e-06
   108   1      3.3969667455694852      4.0823815716096084      1.7680981280551429
   109   1      3.0772318415732123      1.6395766511479937      1.7680981279819483
   110   1      2.3214358319665465      5.4537348054579535  8.3611729806124068e-06
   111   1       1.238095020841153      6.8685726445873376      1.7680981278419947
   112   1     0.90497404507484869      4.4090536190255429       1.768098127903472
   113   1      1.6928163105458243      0.4821120258135187  8.4705998632517093e-06
   114   1     0.60195661031684022      1.9504146348832525      1.7680981279853403
   115   1      1.6375868161854383      11.522738298928701      5.3042774418721459
   116   1     0.15637805465329155      8.5984236386757917      3.5361869930096406
   117   1      14.266544802851771      10.367276444621387      5.3042774391000211
   118   1      15.430462627758841      9.0491079346298484      3.5361877915326638
   119   1      12.940845297408327       9.100671239213554      3.5361877863439095
   120   1      16.918321931774997      10.367276442794862      5.3042774414706333
   121   1      16.486285264294704      13.188342602401379      5.3042774415704779
   122   1     0.15637804850359052      12.136129247657632      3.5361869930096432
   123   1      15.430462622378897      11.685444953416074      3.5361877915326629
   124   1      1.2380941006374337      13.865983673699844      5.3042774419751861
   125   1     0.90497407517414563      16.325498915335235       5.304277441914075
   126   1      17.512353144773638      14.759983651023845      3.5361880548297937
   127   1      8.9968263418849439      8.5984236389934914      5.3042767238608501
   128   1      11.743109016733378      10.367276443348629      5.3042784594389119
   129   1      11.525088156375642      12.832932906918368      5.3042767482158384
   130   1      12.940845291658748      11.633881649094898      3.5361877863439095
   131   1      10.478033515633385       11.52274756317949      3.5361877849283965
   132   1      14.028739827318672      12.960632826555825      5.3042774533235164
   133   1      13.678747270869973      15.519707757342839      5.3042774294669757
   134   1       15.08869634493362      14.348385637557049      3.5361877679104761
   135   1       12.60201912040819      14.160247880100657      3.5361877857411894
   136   1       16.13804167491713      15.832744637227117      5.3042774409097673
   137   1      15.782888418624786      18.351768519780517      5.3042774424293668
   138   1      17.185302746423464      17.326381255454415      3.5361877666120223
   139   1      14.729774769997906      16.921789795174885      3.5361877933793644
   140   1     0.60195658057823931      18.784138278748696      5.3042774418314398
   141   1      1.6928162845461685      20.252440854403783      3.5361877853282881
   142   1      16.875108980230777      19.759709683765433      3.5361877866758817
   143   1      4.1003968411544767       9.100671450137563      5.3042774431551791
   144   1       6.590014332514941      9.0491079426522916      5.3042774478603052
   145   1      6.5900143271349965      11.685444945393634      5.3042774478603034
   146   1      8.0778735303541112      10.367276442794866       3.536187784485783
   147   1      5.4260965179801293      10.367276444621389      3.5361877818711585
   148   1      8.9968263357352374      12.136129247339936      5.3042767238608608
   149   1      8.6719048623615986       14.75998365143419      5.3042776865817061
   150   1      10.078543251722753      13.865980399198538       3.536187785043281
   151   1      7.6458370463858643      13.188342509508164      3.5361877845939285
   152   1      11.161884102086267      15.280818079392731       5.304277541449876
   153   1      10.820104066341084      17.770270017335978      5.3042774305269162
   154   1      12.237415013983801      16.652171317325646       3.536187784807574
   155   1       9.745422314903303       16.32549924818861       3.536187784975366
   156   1        13.3065681895157      18.004222080060526      5.3042774477561938
   157   1      13.017487006889651       20.44609996774053      5.3042774410870592
   158   1      14.395754531897536      19.350359912193223      3.5361877834864752
   159   1      11.917680102919249      19.094976232609984      3.5361877848889933
   160   1      2.9026607320890045      10.367276443348633      3.5361889072414621
   161   1      4.1003968354049007       11.63388143817089      5.3042774431551774
   162   1      3.7615709279497391      14.160247964771388      5.3042774426088437
   163   1      5.1882915681685686      12.960632827112715      3.5361877975601979
   164   1      2.6846398703392507      12.832932906816298      3.5361870198675041
   165   1      6.2482480613139719      14.348385630157351      5.3042774264428907
   166   1      5.8893264893723725      16.921789808666944      5.3042774495345686
   167   1      7.2975934053881577      15.832744613290581      3.5361877838693987
   168   1      4.8382989780632872      15.519707755030515       3.536187771244649
   169   1      8.3448544604763235       17.32638125572527      5.3042774252654503
   170   1       8.034660695273562      19.759709683673854      5.3042774434556561
   171   1      9.4424048723350271      18.784138247271951      3.5361877848854752
   172   1      6.9424401206222424      18.351768534959337      3.5361877855432566
   173   1      10.533264568989662      20.252440855236742       5.304277442233035
   174   1      2.3214358180038248      15.280818079590784      3.5361878947549767
   175   1      3.3969667468138907      16.652171369761071      5.3042774417624337
   176   1      3.0772318157144487      19.094976218037409      5.3042774418349516
   177   1      4.4661199039916335      18.004222081748992      3.5361877914186768
   178   1      1.9796557812143718      17.770270017645259      3.5361877724154391
   179   1      5.5553062468080903      19.350359909061446      5.3042774405627142
   180   1      4.1770387214670102      20.446099967566923      3.5361877840642202
   181   1      1.6375868222897771      9.2118145851171889      5.3042774418721397
   182   1      10.478033521737729      9.2118053208663664      3.5361877849283991
   183   1      17.512353156908464      5.9745692340239227      3.5361880548297981
   184   1      16.486285273088033      7.5462102834235489      5.3042774415704779
   185   1      16.875109001899215     0.97484319798797092      3.5361877866758826
   186   1      17.185302765629011      3.4081716278822842      3.5361877666120236
   187   1      14.729774787822386      3.8127630934990471      3.5361877933793657
   188   1      16.138041689780938      4.9018082485757644      5.3042774409097664
   189   1      15.782888439737286      2.3827843655758021      5.3042774424293668
   190   1      15.088696356074195      6.3861672504748572      3.5361877679104774
   191   1      12.602019132336485      6.5743050071890927      3.5361877857411912
   192   1      14.028739836017838      7.7739200627114364       5.304277453323512
   193   1      13.678747285393632      5.2148451314253332      5.3042774294669739
   194   1      2.6846398797706277      7.9016199793269557      3.5361870198675027
   195   1      14.395754554589898      1.3841929777085993      3.5361877834864743
   196   1      11.917680125771872      1.6395766519455044      3.5361877848889955
   197   1      13.306568210222485      2.7303308093712304      5.3042774477561947
   198   1      13.017487034288825     0.28845292363965791      5.3042774410870575
   199   1      12.237415031176964      4.0823815688175751      3.5361877848075731
   200   1      9.7454223318431943      4.4090536351329437      3.5361877849753642
   201   1      11.161884116541406       5.453734805553677      5.3042775414498733
   202   1      10.820104086627104      2.9642828652135886      5.3042774305269189
   203   1      10.078543263338492      6.8685724848386567      3.5361877850432824
   204   1       7.645837055179201      7.5462103763167683      3.5361877845939289
   205   1      8.6719048744964198      5.9745692336135745      5.3042776865817096
   206   1      10.533264594928724     0.48211202498759215      5.3042774422330359
   207   1      9.4424048945231327      1.9504146337338053      3.5361877848854726
   208   1      6.9424401417347399       2.382784350396979      3.5361877855432557
   209   1       8.344854479681878      3.4081716276114222      5.3042774252654521
   210   1      8.0346607169420032     0.97484319807954833      5.3042774434556579
   211   1      7.2975934202519586       4.901808272512298      3.5361877838694022
   212   1      4.8382989925869406      5.2148451337376596      3.5361877712446508
   213   1      6.2482480724545519      6.3861672578745541      5.3042774264428951
   214   1      5.8893265071968512      3.8127630800069809      5.3042774495345659
   215   1      5.1882915768677318      7.7739200621545486      3.5361877975601956
   216   1      11.525088165807022      7.9016199792248871      5.3042767482158375
   217   1      3.7615709398780388      6.5743049225183565      5.3042774426088428
   218   1      4.1770387488661882     0.28845292381326404      3.5361877840642171
   219   1      5.5553062695004414      1.3841929808403821      5.3042774405627169
   220   1      4.4661199246984253      2.7303308076827664      3.5361877914186755
   221   1      1.9796558015003882       2.964282864904312        3.53618777241544
   222   1      3.3969667640070478       4.082381516382152      5.3042774417624337
   223   1      3.0772318385670769      1.6395766665180829      5.3042774418349534
   224   1      2.3214358324589641      5.4537348053556247      3.5361878947549776
   225   1      1.2380941122531666      6.8685692103373155      5.3042774419751861
   226   1     0.90497409211403379      4.4090539679863232      5.3042774419140786
   227   1      1.6928163104852321     0.48211202582055251      3.5361877853282886
   228   1     0.60195660276635499      1.9504146022570654      5.3042774418314398
