(written by ASE)

288 atoms
1 atom types

0.0      22.645532498833678  xlo xhi
0.0      22.067172887425514  ylo yhi
0.0      7.0723586277786685  zlo zhi

Atoms # atomic

     1   1      14.068666977636486      14.962994599755389     0.42190681984941769
     2   1      12.943184580009605       13.57497050206984      2.1864812236135287
     3   1      9.1379671783961616      14.105385226721722     0.41697283234861854
     4   1      10.501043650453804      12.943624677555908      2.1845649547201513
     5   1      8.0557554991878639      12.693372768237744      2.1821139188025924
     6   1      11.557864699823909      14.516704592956785     0.42009504690320248
     7   1      11.319534279437855      17.133357898689574     0.42284496797363036
     8   1      12.671156950523203      16.041981794712562      2.1882355538676923
     9   1      10.214432727086106      15.623758894603748      2.1871597135870195
    10   1      13.801860404807755      17.447675448494245     0.43503279926539495
    11   1      13.581695610103205      19.909772552972708     0.44495954056972298
    12   1      12.415963420059528      18.529750945040643      2.1967736745333442
    13   1      4.1610326803239106      13.816622139673056     0.41666881018475843
    14   1      5.5723100163623185      12.615199723605045      2.1824193268343479
    15   1      3.0457620851425569      12.518458238673004      2.1844520212314951
    16   1       6.681603313000763      13.948743838910008     0.41416344541611749
    17   1      6.3790604875519952      16.508842993834385     0.41479329187224806
    18   1       7.774843573489373      15.325114270340762      2.1815519082329766
    19   1       5.293373015381837      15.122333687000403      2.1842797308375941
    20   1      8.8545182494579908      16.749598661743434      0.4158526685586218
    21   1      8.5941657421514535      19.207755597767203     0.41459536831700478
    22   1      9.9722862227897142      18.178280413710464      2.1878074874450997
    23   1      7.4626966697213089      17.860843459040968      2.1682594304039213
    24   1      11.098945592249127       19.69060594947743      0.3574932003240115
    25   1      21.823350031928062      12.941541882395292      0.4169424458524239
    26   1      1.6197110578867013      13.572782243501512     0.41915610677072213
    27   1      1.3456915473989086      16.042561355963269     0.42927797835209908
    28   1      2.7458656074600358      14.961713589424543      2.1898630767189933
    29   1     0.23599294968995566      14.513667423812938      2.1873102247625105
    30   1      3.8631334966085356      16.282253274346154     0.41439198329450283
    31   1      3.5985422896050938      18.728064827984522      0.4025236756437085
    32   1      4.9774971509488353      17.563210194833569      2.1893766256613292
    33   1      2.4787308411197237      17.446769525929366      2.2022502824674408
    34   1      6.0527213865544223      19.001665402613245     0.43538917407418343
    35   1       4.690853482069917      19.943865692906602      2.2454318427323323
    36   1      16.895049719535521       12.61602723297093     0.41435480336190061
    37   1      19.378599705336352      12.693953583532203     0.41369060296221172
    38   1      19.096252210331571      15.324708716986036     0.41359528007038276
    39   1      20.459095583669367      14.107677544444293      2.1855542172416231
    40   1      18.005875738741878      13.942240885940718      2.1872780717768361
    41   1      21.534359836510852      15.615302653183146     0.42234646231128803
    42   1      21.298808525334191      18.166640944306199     0.42501669425793781
    43   1  -0.0046711948802431935      17.132322046877093       2.189420725341543
    44   1      20.168885020188245      16.754688767539125      2.1889572374013047
    45   1      1.1448116853151351      18.562921789615455     0.43201234558535301
    46   1      2.2590956585680795      19.909504657295081       2.211858124385933
    47   1      22.424883932765663      19.689513416799358      2.1291406468442067
    48   1      14.369231831131463      12.519764520408296     0.41652443909771247
    49   1      15.485492212202249      13.817373320456536      2.1880752027950612
    50   1      16.615692570517858      15.123347822903934     0.41620434162470604
    51   1      16.300581917803946      17.564347503004448     0.42212867239848023
    52   1      17.711215310297945      16.477108440775964      2.1923124235217601
    53   1      15.193206058511681      16.282494413923157      2.2003119947481111
    54   1      18.786098653029104      17.859884593620059      0.4019416323362785
    55   1      19.925162598378265      19.205051889050793      2.1912900887570692
    56   1      17.442035571474378      18.897390218551116       2.166242923588972
    57   1      14.913295467783945      18.707485648857446      2.2272879200523494
    58   1      16.013406088277382      19.945178855584157     0.47919497963263435
    59   1      22.253764314318943       10.05583787441771     0.41163298072828491
    60   1      20.762049734753212      11.397303472099853       2.181712812746353
    61   1       21.62404749141708      4.4909073251139651     0.41124460762414561
    62   1      21.869105584829345      7.1707027361512257     0.41032457636910885
    63   1      19.420630378140995      7.4361813718821166     0.40887432368138327
    64   1      20.787341627227931      8.7196349324013998      2.1791079590083231
    65   1      20.516588727674328      6.0058045475180366      2.1708991353118852
    66   1      19.604139749775282      10.064511900422735     0.41172192417872028
    67   1      17.073224472835474      10.072517666069823        0.41228378817916
    68   1      18.269939219283987      11.358075073919954      2.1825262091937052
    69   1      18.294698454883576       8.784510190748664      2.1793962795654793
    70   1      15.763125725851335      11.321537551245465      2.1828913972520945
    71   1      21.440119146486381      1.8958296996652855     0.40367160519973194
    72   1      18.873927834778659      2.2087618680663055     0.39182279399028125
    73   1      20.277486398600196      3.3549066782237622      2.1472836212548665
    74   1      20.061829920276619     0.89792060297842902      2.2116224888703453
    75   1      19.166716440286368      4.7936911519717054     0.40535828411057923
    76   1      16.689803672669026       5.025831510147702     0.40549491001903293
    77   1      18.062814649887827      6.2009100321679922      2.1742215740143482
    78   1      17.802618738524277      3.6492028569072033      2.1702839077263207
    79   1       16.94000310957956      7.5333981397594343     0.40897246844324225
    80   1      14.417802826813668      7.6182611883762297      0.4090483419084559
    81   1       15.78963634578823       8.819847334960091      2.1793231729439198
    82   1      15.548734763628449      6.3249892395194731      2.1765247778677255
    83   1      14.557312341084186      10.068805538564751     0.41242022367163683
    84   1      11.834277037226439      11.884767406415618     0.41589592950949028
    85   1      13.295647438642368      11.221280791412335      2.1831322713534465
    86   1       13.32079628863449      8.9049504017949506      2.1772724930327323
    87   1       16.21104438658201     0.22625531066702104     0.39891595938038588
    88   1      17.548051185017698       1.210194773294061       2.240179529857933
    89   1      16.420112622222781       2.584523331206062     0.40195718037610506
    90   1      13.935407278335447      2.7053499312305567     0.41246069012770742
    91   1       15.28166225888403      3.8562303083542675      2.1798706546238034
    92   1       15.08013467166634      1.4256464528845665      2.2135972996486899
    93   1      14.149391514176711      5.1785330920745816     0.40561864266317271
    94   1      11.627302352938122      5.6010682643738097     0.40244377936631742
    95   1      13.001780013301188      6.5523614198180837      2.1739292972226951
    96   1      12.767097421990529      4.0957478812276289      2.1708421235372715
    97   1      11.865189612259247       8.236613008101056     0.40815820774871908
    98   1      9.4649291565229223      8.7204243067865814     0.41063992394736221
    99   1      10.931452191579133      10.056933432558957      2.1799744590676755
   100   1      10.544991374997805      7.1717137951821801      2.1771634585004707
   101   1      9.4398934741662135      11.398066938176326     0.41398241539702929
   102   1      6.9467824330067991      11.358255796344077     0.41263878836848145
   103   1      8.2812257958750202      10.064355840069837      2.1798544537037432
   104   1      13.759736389208001     0.27899957803394754     0.41913942808175575
   105   1      11.275976937360708     0.43490958807940061     0.39706570607816877
   106   1      12.566198712952133      1.6468740039823391      2.1653604068581798
   107   1      11.440698488969925      2.9850174135779106      0.4030877962389553
   108   1      8.9631726108804237       3.362169160439386     0.41884783925237556
   109   1      10.300257893849194      4.4960795020961362      2.1706162504064976
   110   1       10.09905178066097      1.9347368259145639       2.171230624077233
   111   1      9.1954058302768225      6.0094512765318679     0.41009172189886389
   112   1      6.7394353814774233      6.1959901671994109      0.4092073146223888
   113   1      8.0975925018292632      7.4357037546986282      2.1771132453963524
   114   1       7.846165461513098      4.7930334577249551      2.1696204742152729
   115   1      6.9715418746822184      8.7833800877151411     0.41038453442969025
   116   1       4.466925899483452      8.8205439344544665     0.40980095368630826
   117   1      5.7502361643074105      10.071943174352693      2.1801582241435713
   118   1      5.6168045137602585      7.5326211276807697      2.1772206232166944
   119   1      4.4398239118721818      11.321153464244086     0.41376949349288283
   120   1      1.9720604845280321      11.218055952445868     0.41457951052283737
   121   1      3.2334042866411283      10.067697513275494      2.1799379627553441
   122   1      8.7296873837118678     0.89950361653388156     0.38873632050948231
   123   1      6.1781110647980393      1.1504702529137152     0.30535315447419153
   124   1      7.5448823575417272      2.2218425275322695      2.1553569999096873
   125   1      6.4779392090189782       3.629529714926218     0.40058295267344662
   126   1      3.9643081047919493      3.8729830709505508     0.39375311961179066
   127   1      5.3687773943238843      5.0242681913636442      2.1731063346199329
   128   1      5.0946634630767802      2.5846871351387448      2.1685850547058934
   129   1      4.2276052578122911      6.3307188505046179     0.40562401662037806
   130   1      1.6817499182100681      6.5448445690291503     0.40628961746267778
   131   1      3.0940052855927163      7.6174163498012861       2.176719309719648
   132   1      2.8271350951002123      5.1774866056198237       2.173999087256425
   133   1      1.9977007516292884      8.9004095188596803      0.4086539306289329
   134   1     0.51182042802803585      11.880471867428284      2.1835209313247614
   135   1     0.54260939472862957      8.2377670852706917      2.1792509055390519
   136   1      4.8867001220527282     0.22533971874162342       2.166411921130361
   137   1      3.7366125300229207      1.4593884658165794     0.37550374606282799
   138   1      1.2842206181932352      1.5611205940920572     0.40197199216202401
   139   1      2.6116687337134352      2.7043860824448558      2.1786065271455692
   140   1      2.4365423011358054     0.27846536664488092        2.18633225627282
   141   1      1.4532611387060366       4.072051358173737     0.40653343694652438
   142   1      0.3052197434578105      5.6006846064077145      2.1743296927958382
   143   1     0.11598368351975688      2.9807765788321783      2.1578913440802716
   144   1      22.601658796350023     0.43266680620911668      2.1729181272880993
   145   1      14.062459718731873      14.956886409884719      3.9577483609146511
   146   1       12.94208385332964      13.574231939282523      5.7242157565691549
   147   1      9.1369278228554744      14.109199951700177      3.9517178578932328
   148   1      10.500753433193335      12.942082603183461      5.7193990443741152
   149   1      8.0562514124333138       12.69405478155276      5.7194692907196245
   150   1      11.558899061394467       14.51617835132279      3.9550341659023123
   151   1      11.312823151147715      17.124803862121752      3.9624672134766086
   152   1      12.667664230655655      16.044013795206155      5.7332657141150172
   153   1      10.212349988396126      15.614237883724407        5.72376861752916
   154   1      13.774775715315362      17.418916593441715      3.9601693713287531
   155   1      13.584201606294757      19.877260835737381      3.9569435955594034
   156   1      12.468316605998634       18.56340457192529       5.736790031428602
   157   1      4.1627115326961892      13.816267338260388      3.9555826763073254
   158   1      5.5700269260036892      12.620216359797453      5.7205934637155949
   159   1      3.0462784137706818      12.517740609667651      5.7214203678193645
   160   1      6.6833176379575061      13.941521859370038      3.9547773901871008
   161   1      6.3886220766601625       16.47657028936105      3.9598431974371153
   162   1      7.7730769293970079      15.327128505952331      5.7258572806335515
   163   1      5.2856449050704963      15.143225627880424      5.7264182260546148
   164   1      8.8459646181531681      16.755235103753492      3.9580304645282189
   165   1      8.5966646857986149      19.201905721109416      3.9644672620952299
   166   1      9.9766599693171436       18.16422577539047      5.7317494188687332
   167   1      7.4508057268789623      17.873308040443682      5.7387884769506003
   168   1       11.08759285564803      19.659390365024741      4.0361751317853178
   169   1      21.824089478354313      12.941840595951311      3.9508057143640345
   170   1      1.6201127917517013      13.573967030516863      3.9550627208708549
   171   1      1.3477816284052113      16.040732956904968       3.955482009060431
   172   1      2.7397942486583045      14.955743985887652      5.7253824065542807
   173   1     0.23541990049410824      14.516548123679952      5.7237774555125416
   174   1      3.8701291115839243      16.281643117297676      3.9676768994797089
   175   1      3.5897996102071028      18.706759292989354      3.9943759167983384
   176   1      4.9719498615302244      17.624534543681456      5.7281773791782022
   177   1      2.4521629128787996      17.417730185378922      5.7278928630046817
   178   1      6.1170511599055031      18.895884006192944      3.9345884075142972
   179   1       4.803657889374719      20.073720003957192      5.6430380319575528
   180   1      16.892711813457787      12.621131552567887       3.952749451497644
   181   1      19.378933813013926      12.693401911756917      3.9519254909329855
   182   1      19.097425584208509      15.327800156051268      3.9579888181642815
   183   1      20.461542279972004      14.105666895421088      5.7194917740378175
   184   1      18.004590105437217      13.949415745127471      5.7181629930769873
   185   1      21.538193537227635      15.620390375830683      3.9524470179539315
   186   1      21.296168732689559      18.173386599637052      3.9589239299900729
   187   1  -0.0084572922591865923      17.122521938171896      5.7318692264821927
   188   1      20.177541186602607      16.749494520984264      5.7214670041631246
   189   1      1.0935263479547581      18.527171731454889      3.9644925776740716
   190   1      2.2591451418767132      19.875935950185827      5.7245744594064085
   191   1      22.407637663059877      19.655763805660538      5.8013365525715272
   192   1      14.368247078353864      12.518735654433948      3.9534298786520718
   193   1      15.483705926939598      13.817695506961524      5.7207485101365307
   194   1      16.608861187153117      15.144444073167447      3.9588810532973637
   195   1      16.295033298924452      17.626337982885229      3.9604158948266455
   196   1       17.70231474833172      16.510403605605013      5.7190783747170286
   197   1      15.185876237965996      16.283722194510631      5.7188857605660131
   198   1      18.773983666168384      17.874315498543663      3.9694842318040724
   199   1      19.912473218073018      19.204230695690907      5.7239307434407403
   200   1      17.374464694384322      19.002683411913523      5.7411765309930756
   201   1      14.921516286556747      18.729519795672118      5.7075342841721666
   202   1      16.128569656400334      20.076106006755349      3.8745435145216169
   203   1      22.254285298743277      10.056154422033311      3.9490998039568384
   204   1      20.762913868566191      11.397297262707326      5.7175048779525337
   205   1      21.612391009201342        4.48641150542662       3.936324692774777
   206   1      21.865422383360745      7.1652467799073722      3.9436123908128469
   207   1      19.420600350562793       7.436100845061298      3.9462218381386007
   208   1      20.787533639376015      8.7191003049306968      5.7150726961450591
   209   1      20.518726737807508      6.0065781546037122      5.7172505595428316
   210   1      19.604580710641311      10.064551866089813      3.9488341080303373
   211   1      17.072963294420763      10.072502171369559      3.9484315524761313
   212   1      18.269489190829997       11.35840831437925      5.7171193855535742
   213   1      18.294338702839859      8.7835124593442107      5.7145762652045038
   214   1      15.762437302050003       11.32198009688986      5.7178509290478363
   215   1      21.442701552495205      1.9532616592542178       3.943174432832445
   216   1       18.93591167311866      2.3208286393773858      3.9442634769020737
   217   1      20.276129615298817      3.3665352535822337      5.7340769545533821
   218   1      20.037091423582424     0.90741890644518564      5.6662625151814598
   219   1      19.172085898178466       4.813140174543423       3.943065600880991
   220   1       16.69239238807144      5.0137227611394746      3.9411694590584259
   221   1      18.062901274836076      6.1950256999650408      5.7134911502755852
   222   1      17.798215862422108      3.6292514389758113      5.7087267518710778
   223   1      16.939590751000381      7.5282391595965432      3.9454146650199298
   224   1      14.416061209889486      7.6169541449110838      3.9432654908875504
   225   1      15.790209059237101      8.8215145607132452      5.7139342770097334
   226   1      15.550736215575446      6.3317876816223366      5.7092910719826966
   227   1      14.556482056514124      10.068249531140339      3.9485415006536164
   228   1      11.834785169696525      11.883166744964544      3.9514976771932049
   229   1      13.294665980464458      11.219550042708144      5.7201257522784852
   230   1      13.322631642613221      8.9021965414607198       5.714050692850452
   231   1        14.8949276176306    -0.93858966795507859      5.7118250441738905
   232   1       17.49608888765173      1.1511291657523051      5.6050073828145583
   233   1      16.415376225306368       2.578460799191201      3.9375550918953532
   234   1      13.886437777511496      2.7288595166117067      3.9324050314561885
   235   1      15.286011367039869      3.8737530119842227      5.6987833397980685
   236   1      15.059319758311384      1.4606464907308183      5.6807143471676715
   237   1      14.147552161188383       5.176692057863006      3.9392304526792179
   238   1      11.627476191345126      5.6050546421134051      3.9457448664631354
   239   1      13.006782027951347      6.5470228085876627      5.7107989319996237
   240   1      12.772362345570722       4.071865673602014      5.7098000794212709
   241   1      11.864878417854763      8.2394356987509543      3.9464924137989725
   242   1      9.4643684904306102      8.7203900205747225      3.9471976373814779
   243   1      10.931239670548988      10.057502496270333      5.7168634363798789
   244   1      10.544264298143251       7.167519406890773      5.7127950252520066
   245   1      9.4397231109216762      11.398163655668711      3.9489272033584273
   246   1      6.9471969688967325      11.357466083737307      3.9506099755504374
   247   1      8.2819541367975074      10.065339280816175      5.7167035354296667
   248   1      12.413357376460615    -0.95701854541689879       5.734915052713613
   249   1      11.259601325063809     0.44347177842691687      3.9608730650921569
   250   1      12.610758708467429      1.5657432214230027       5.708912107462055
   251   1      11.412209095048047      3.0133415782318655      3.9402924827081907
   252   1      8.9464703282687239      3.3649521981440249      3.9259247281708927
   253   1      10.290501306771398      4.4835293524875448      5.7131516041739232
   254   1      10.138602678248414      1.9175934934602721      5.7111932059988098
   255   1      9.1946597854556646      6.0056436937767481      3.9416535174628411
   256   1      6.7410949148264105      6.1995676257418584      3.9419717077466059
   257   1      8.0980768224249342      7.4373705432133628      5.7139262567119218
   258   1      7.8476527812307992      4.8134760522931623       5.714165618315028
   259   1      6.9717490460109168      8.7841122618012548      3.9472012062522155
   260   1         4.4670572850829      8.8190842146645174      3.9471519275593363
   261   1       5.750337873601497       10.07167648478779      5.7165446327566656
   262   1      5.6170478044838585      7.5274066261598023      5.7131402916681706
   263   1      4.4402837313442927      11.320465744398801      3.9505926576803727
   264   1      1.9727397681052343      11.220499203709739      3.9523239401690602
   265   1      3.2346853674396647       10.06725877040425      5.7171004361143147
   266   1      8.7282312953781318     0.91041224563676526      3.9532968214985287
   267   1      6.2226806269121298      1.2134995064071827      4.0030616885642942
   268   1      7.6218872211508977      2.3082533497523916      5.7162909048145316
   269   1      6.4785007428988655        3.64967904395079      3.9417996976387308
   270   1      3.9586813460445298      3.8551282217587715      3.9487448040642379
   271   1       5.368220815522041      5.0136782614190594      5.7096325770401899
   272   1      5.0959433892790358       2.576278482451098      5.7069460540225005
   273   1      4.2263672920000523      6.3242757013937609      3.9440020673386265
   274   1      1.6809024188693626      6.5521996169458454      3.9425643886378805
   275   1      3.0940053201580944      7.6158937187597049      5.7118251835213929
   276   1      2.8244976554560384      5.1763050281056193       5.707232706775434
   277   1      1.9996934187585071       8.904493693294361      3.9465240311562639
   278   1     0.51164746926858018      11.884814480252192       5.719923147177659
   279   1     0.54169223443832726      8.2351617685401521      5.7116730636991786
   280   1      3.5695099915263131    -0.93987686596346354      7.4790324831374537
   281   1      3.7577164728329877      1.4253104431424073       3.981864827229185
   282   1       1.249655117516004      1.6473050151490385      3.9350948828233263
   283   1      2.5655354415386622      2.7293328591815653      5.7020460909422637
   284   1      1.0861381112595963    -0.95834026655269489      7.5019089000346462
   285   1      1.4408905063685242      4.0937544791648364       3.938171319733005
   286   1     0.30413415828499629      5.6022896549530197       5.710519471290687
   287   1    0.091847398845362554      3.0119990745471932      5.7221520732222384
   288   1      22.576815920544274      0.4410167076997315       5.720724443805854
