(written by ASE)

100 atoms
1 atom types

0.0      7.9114520242947419  xlo xhi
0.0      21.317245149529782  ylo yhi
0.0      7.0723586277786685  zlo zhi

Atoms # atomic

     1   1     0.54309161214317681      12.694436980974988      1.8238099915852113
     2   1      5.2242038862659488      11.038896397489632      4.0130602781352946
     3   1      3.0740825543628185      11.026645955055574      2.8353720965874309
     4   1      2.9818039103314824      10.989416078824332      5.3384709164734403
     5   1      5.5002322836571205      12.468613940184916      1.9027513525059225
     6   1      5.0127746780486095      14.521177332430904     0.59489547635062567
     7   1      6.8769995935216643      13.301272821788523      3.9673065875241327
     8   1       3.922688462146275      13.075451973338739      4.0462467229524366
     9   1      8.5423252262793223      16.741978540287299       1.670749326440941
    10   1      9.1733049568248788      19.426254971534586      2.1860950207676084
    11   1      2.0055092243393955      17.454436181000858      3.4853416074173569
    12   1      7.4025415400018151      16.052156178456226      4.0548954701234807
    13   1      10.612235646271179      20.259053061443172      3.9630217399678509
    14   1    -0.63061216966661737      10.971191673309535      2.9159608073944234
    15   1      1.4248523584608024      12.409844397935109      4.1008821063667984
    16   1      3.0409271855529982      13.360042757149255      1.7691758736014582
    17   1      3.3197949851741861      16.014832727632925      1.9594822350977736
    18   1      5.0963895173334128      14.798695945152796      2.9541018424393397
    19   1      1.3916965972392326      14.743241335179379      3.0346848149519161
    20   1      5.7345365684414631      17.026105526767683       1.364573513497005
    21   1      6.2804626734382039      20.057899672516282      1.7372651151670579
    22   1       7.075711041110651      18.231995865291555      3.0519330084790832
    23   1      4.1585783598259178      18.755258931427868      2.5518741005407226
    24   1      2.6677416990916885      17.999673449293319     0.78014042556856644
    25   1      6.0527487714282753      8.0442973778129527     0.22268101213253716
    26   1      4.9746900647240961      9.7177311941669746      1.8151623660653982
    27   1      6.9838451204112646    -0.87258815990269378    -0.89957021360740241
    28   1      4.7399141036089318      2.5326404032431276    -0.81498329885884768
    29   1      6.1523878721606362      3.3988804781983362     0.96824319348003463
    30   1      6.9305037137963712      1.4906236305230267      2.2596992243488612
    31   1      5.3933865628096882       5.325230301088836    -0.30273076671393184
    32   1      2.5100156209193307      5.8760503991128985    -0.73800859059980128
    33   1      3.8638050231207961      6.8034649673108909       1.021368240255929
    34   1      4.6868830337563887      4.8875821624042857      2.3248925717803481
    35   1      3.0783589846307886        8.85110352220231    -0.13437609234304096
    36   1     0.36109331065727374      9.2994737649373089    -0.72638978650875208
    37   1      2.4602706382465147      8.3154511706837528      2.3847163996032634
    38   1      5.5282139515489677     0.64189394656286014     0.46623514705982749
    39   1      2.6114141415089063      1.2666465944426768    0.038369661313255442
    40   1      4.0290025426686675       2.115503002498647      1.8272342245835544
    41   1      3.4117343889271607    -0.64048002929770698      1.3137511593855837
    42   1      3.2759273635495623      4.0178589647620147     0.55633069570389648
    43   1     0.35982826512430355      4.6822265865912058     0.09271249309743626
    44   1      1.7649962147118918      5.5108340945216083      1.9070361976486363
    45   1      1.1446205743614088      2.7644678931536952      1.3965630145151753
    46   1      1.0565608307009984      7.4188272193578797     0.60405301316383742
    47   1    -0.45860911237584451      8.7950051243035858      1.9871363555769033
    48   1     -1.0611559901716265      6.1369648166890611      1.4810154694466853
    49   1     0.47075929258288052    0.012214476730520623     0.89665201925070082
    50   1    -0.27413444677957122      1.9200017797999733    -0.38731768992163679
    51   1    -0.74866725311238125      13.392650158803342      6.8576438590848987
    52   1      6.9114133990393283       10.92028051087628     0.55010439204404327
    53   1      1.3130947633043943      12.119595654521431      6.7091888940458588
    54   1      3.6059628965716395       11.32994807484676     0.51957450715712894
    55   1      5.2144471047303842      12.377237444441478      6.0847728423127503
    56   1      5.4658178673825741      14.849606877827012      5.3199524245609355
    57   1      7.1530313104675374      14.730990713678841      1.8569962493435781
    58   1      3.1526852310995994      13.650291761644086     -0.8391307795488202
    59   1      7.2141432509583412      15.856045477501503      6.7797353672147675
    60   1      8.5134267268619244      18.966422400021706      4.8486895105336467
    61   1      1.3874207015608928      16.918783776608386      -1.067924825286598
    62   1      6.3244827790892817      17.725590250321538     -1.4249821139119343
    63   1      9.8672160804735256      19.893836895438636    -0.46429244706012696
    64   1    -0.54699590087805527      11.248710443259633      5.2751590016073679
    65   1      1.3765406480927871      10.245273178315747      1.2790411830660291
    66   1     0.85981663191387936      14.439939261252361      5.3504834308102156
    67   1        3.08923962182917      15.524614190662247      4.5910164342162219
    68   1      4.1046867788777561      16.470412809683395    -0.47591076435167518
    69   1      1.4839752117248111      14.780471462942696     0.53158725967002185
    70   1      4.9243890383298519      16.974880881592998      3.8829212775530717
    71   1      5.5269358649239368      19.632922414485034       4.389042474734941
    72   1      7.7680839056486732      18.537178528251438     0.35310499236237414
    73   1       4.887289942204557       19.10657191034268   0.0044801947813186156
    74   1      3.4092184984662128      18.351060575817648      5.2660044873405027
    75   1      5.3015206254365097      7.5378916270786736      2.8181247406546768
    76   1      5.1630888313396976      9.9138414078295707      6.1626816186256157
    77   1      7.6903486761695117    -0.43494000625328644      3.5451651197853287
    78   1      5.4467279849911492      2.9620185558705532      3.6103584635054378
    79   1      6.8490177774669432      3.8107482697000967      5.4038226116205506
    80   1      6.2248438932688464      1.0537617326070929       4.901814623709539
    81   1      6.0967690764197791      5.7119876186815128      4.1327926727322115
    82   1      3.2039266997359674      6.3436324134373328      3.6839625998193952
    83   1       4.609147807304967      7.2327089369325206      5.5169527044702429
    84   1      3.9950204490521157      4.4404276981609216      4.9734058038440745
    85   1      3.8349062794131528      9.0279079681825642       4.199308129254371
    86   1      1.1459845724303293      9.7550546756560976      3.9105754762696536
    87   1      1.7980380751693021      7.7702139847321972      5.0899174422947242
    88   1      4.8048922114261776     0.22259666356208763      3.1083441139442525
    89   1      1.9099329636140776     0.84240596094545195      2.6778370449450639
    90   1      3.3211591901553978      1.6881742559229791      4.4734948152353669
    91   1      4.1059513683943019    -0.22958439094487407      5.7773451423725657
    92   1       2.555846640903551      3.6102363148823797      3.1922205447114935
    93   1    -0.33911263284088522      4.2300455995087045      2.7617134250770139
    94   1      1.0540454707635707      5.0931220388511953      4.5563068181453366
    95   1       1.854365507041617      3.1859956393240738      5.8316879941482211
    96   1     0.30720103933268095      7.0146288297101007       3.318183118176731
    97   1     -1.2687569321592924      8.7437819763614026      4.5054841543827511
    98   1    -0.42151022097429519      6.6633154139010964      5.8655775868370812
    99   1      1.1898523338979232     0.43478324532687646      5.3137270589495316
   100   1     0.43677720365323769       2.337139134507785      4.0428235690058667
