(written by ASE)

240 atoms
1 atom types

0.0      19.039428735234662  xlo xhi
0.0      21.475548501291236  ylo yhi
0.0      7.0723586277786685  zlo zhi

Atoms # atomic

     1   1      6.1598453106787057      11.598161136550193      2.6636288760342186
     2   1      4.4756088661990479      9.9611349309372006      3.9036707230565817
     3   1      6.4293119812865678       13.67974591338152      3.9590093824888037
     4   1      1.5021849769377842      9.9106041867963093      1.1439009245914795
     5   1      3.8707226100511058      10.439663769778829      1.6738768057567019
     6   1      2.4540458329522661      12.255871007343128     0.96783897802912577
     7   1       4.031623795632119      12.501661479227048      2.9197377128519864
     8   1      2.1375410156317791      11.064688858444551      3.3966204092477184
     9   1      5.7601898855891198       13.99971199745567      1.5018219785365545
    10   1      4.5476655048069645      16.387234903696225      1.9446668049422178
    11   1      6.9277239311083445      15.675364949416265      2.7188733026077339
    12   1       4.126041835513929      14.656913655373639      3.5774623528093357
    13   1        7.47414927885373      17.563471394741583      1.3834943877834638
    14   1      4.0710536009020313      20.225225011986169      2.7999731071519522
    15   1      5.8233105669452936      18.291816791394595      3.1620877236404867
    16   1      17.027003572171623      11.290590961593526      1.2109767451002094
    17   1      18.769814043804317      9.7606652622253662      2.9302408665177677
    18   1      16.411802731817037      10.219016752181773      3.4323189133375855
    19   1     0.26389827365228691       12.16064656051833      1.9609219919397647
    20   1       18.43469062492564      14.517893507772051      1.9968989013264871
    21   1      1.7985572372451923      13.940178402052583      2.8737442393807235
    22   1      17.459249179694876       12.44883855801119      3.4260862109970014
    23   1        1.75589585261629      16.041648601883669       1.218844068279358
    24   1      1.1080593793524889      18.406434199379429     0.35485772812720173
    25   1       3.291510628857409      16.783558705829535      4.0485623186183872
    26   1     0.93574815497778718      16.397987274412838      3.4431424162782545
    27   1      2.7995126906686036      18.237771722236094      2.2637206554204488
    28   1      1.8237471097888187      20.434043298762937      4.0079392572697721
    29   1      14.727372880524326       9.973609952140114      1.7657380658712898
    30   1      14.548296210882837      12.296174591659231     0.48378902097893683
    31   1      14.940571285178059      12.222986054321664      2.8955127176991784
    32   1      12.423808637335217      11.040506819599589      1.2956380688631137
    33   1      16.013495740280465      14.021407954022692      1.5834485271581753
    34   1      15.649198218661676      16.464837748099534     0.62593754245605393
    35   1      16.523241002498011      16.069391828976471      2.9226599374738562
    36   1      14.201515017233859      15.029552606622854      3.2987968749491889
    37   1      18.386326713833384      16.933079978381855      1.3962070055418632
    38   1      18.293304874374996      19.825065274141743     0.85991758351872749
    39   1      19.411506685921239      18.785228041691902      2.8501712182450039
    40   1      16.557773463797403      18.371638517640072      2.0193409548525683
    41   1      9.0468629540425844      9.0844207622881861     0.97237491737007165
    42   1      10.707084406532916      9.8057880563099218      2.7930523986646358
    43   1       9.570395098942166      11.715374026219344     0.31417154519138896
    44   1      10.450134766619406      13.995786216112245      1.4914957573904879
    45   1      12.748311160673907      13.255618553993957      2.2615085285227683
    46   1      10.289158689994654      12.103634376396348      2.8235078427781235
    47   1      13.342787672723915      15.228701068931624     0.93321489818824965
    48   1      12.015995678944453      17.590374277864047      1.5253007246672112
    49   1      14.278799206394718      17.323488440043885      2.3279029221351051
    50   1      11.849117759703217      15.665765331893549      2.8839655303101144
    51   1      14.970001429377369      19.047866036993248     0.44386302266006089
    52   1      13.020191326384404       19.56899699070717      2.6581865289037894
    53   1      11.547986148942226      19.913816373376811      4.7456555695019667
    54   1      6.1063746699104922      9.4299892165510215      1.7831551001937223
    55   1      8.3528205188429734      10.562896039831388      2.6506849039203542
    56   1      8.0200767944699294      12.895859352836714      1.8927968493548846
    57   1      8.2723040365410938      15.047557924999484     0.70977795779739472
    58   1      8.9990571875740297      14.378024601481899       3.500894707659421
    59   1      9.5942612776949474      16.407929278556967      2.1357846231200979
    60   1      9.9017318900729627      18.610104831888673      1.0715667264392779
    61   1      10.534518696900321      18.173960653703062      3.4728899635561437
    62   1      8.1596188380289707      17.329501779622241      3.9831755540526497
    63   1      12.439004531977675      19.570501162475857     0.15565088549138908
    64   1      8.1810277022764843      19.460679960027594       2.699825420993315
    65   1      17.690480461650846      6.7074128715178993      3.1509392213980414
    66   1      18.672576496373626      5.0148037680150406      1.1362750292586679
    67   1      16.809537199574027      8.5351944721146449      1.4970629239017172
    68   1      18.858042021433505     0.25103635402046748      2.5719665915910368
    69   1      16.306570797617692      2.0068202488291429      3.0367514494958137
    70   1      17.791930664325584      2.4655224633056196      1.1190940806012755
    71   1      16.564753694949736   -0.056650107985093637       1.409145194776138
    72   1      17.091941628417427      4.3113093318515858       2.995552852938526
    73   1      14.732926872570621      5.3653941606538611      3.1168385771212592
    74   1      16.288511969977488      6.0652623690214771      1.2740889699178046
    75   1      15.247023564490743      3.5674870282051936      1.3468275639259479
    76   1      15.458970871552143      7.7863759872108504      3.3039242735747534
    77   1      12.986213174567983      8.7642779883891713      2.8045148272354221
    78   1      14.060789113252303      7.0889850684629376        1.35527974920549
    79   1      15.119603205193002    -0.72816933427601405      3.1743543340959346
    80   1      12.611609759517862     0.39885085805847453      3.5260770083879138
    81   1      14.343762024935142      1.2779589896749013      1.8678164987877637
    82   1      13.730213854769163       3.039549840698069      3.2923502938144158
    83   1      11.278855914414063      4.0434678095020287      3.0935340163860916
    84   1      13.023815801182256      4.7551238506859335      1.3453598623435454
    85   1      12.210153924583773      2.5071641326475067      1.3907422777641822
    86   1      12.286798214843516      6.3894469200816655      3.0642867327060568
    87   1      10.043224980666205      7.5307683421284821      3.2547298743465491
    88   1      11.417159690130172      7.9643674523048977       1.237074086845656
    89   1      10.655603003426055      5.7196033261460375      1.2287755954000923
    90   1      10.404229574746623    -0.94109446088305726      2.6338795046124273
    91   1      10.366340136064832       1.593805958160718      2.6564182924934667
    92   1      8.1147620338584812      2.6933968920766844      2.6562733761996973
    93   1      9.7536551510191352      3.5169225630191101      1.2004141071016321
    94   1       8.649715271050832     0.44858903929137423      1.2085754744285253
    95   1      9.0201543383860283      5.1320223052343978      3.0525869159006751
    96   1      6.5895221432937348      5.9540910948521697      3.0211518292968842
    97   1      8.4017617368107338      6.6951588406139102      1.1057366595964804
    98   1      7.3029862901576941      4.4611073774361847      1.1701503438270344
    99   1      7.6957359220628048      8.1362601853243639      2.9873304421610309
   100   1      5.9288010527041894      7.2486666448408235      1.0208392766636794
   101   1       8.146790992727956     0.32746615546308011       3.484928980010904
   102   1       5.031935941539019      0.9643555771637925      3.1324847749153562
   103   1        6.37675054904751      1.6222854441828853      1.2607255547956275
   104   1      6.2808385810516842    -0.79123720082283122      1.8454304130689425
   105   1       5.757238730461828      3.4923923813287203      2.8394612964804828
   106   1      3.4049183830197065      4.4094714306442739       2.970863609725539
   107   1      4.8337171150987199      5.1089252534533527       1.208605943459264
   108   1      3.9861988580959165      2.6070175860921863      1.2710092909538024
   109   1      4.3444225757288732      7.1592756670657023      2.9376357989113089
   110   1      2.2311323837972474      8.5177494771074951      2.9714912866494396
   111   1      3.6294383421096694       8.330501630762031     0.84003333306804051
   112   1      2.4805744720110909      6.2017379768872658      1.4846666765857761
   113   1      1.7730360634801616    -0.97976644489490905       1.675320080081294
   114   1      3.8276343293880917     0.26404818036936095     0.84403472209255059
   115   1      2.4791431218204942      1.3436679639078164      3.1492357683480319
   116   1    0.019760571496365641      2.7478202294095362      3.0961408394390149
   117   1      1.7386861229877031       3.694753182577343      1.4664349399277818
   118   1      1.2880050192923442      1.3701100403215738     0.99908133127861809
   119   1     0.82588709050522968      5.3422143656990659      3.1048936526552366
   120   1     0.30672554380589157      7.5474489645770673      1.6687891649240898
   121   1      5.4543190358218849      11.816080288635996      5.1512496329094271
   122   1      5.2388435478431017      9.5267755458931234      6.4626966993842956
   123   1      7.1353102991308637      13.226580851804107      6.5628612317857176
   124   1     0.94435892501581464      9.7335226024391712      5.1120873075255231
   125   1      3.0454013784032452      10.539302617237938      6.2312670143686431
   126   1      2.9641210282025514      12.785038810033866      5.4068752687522004
   127   1      4.8676902575941563      12.127831016002835      7.3990976690552914
   128   1     0.57836723924894207      11.558139171014709      6.7236913572375707
   129   1      4.9411544066611706      14.285772414472698      5.9082623663561398
   130   1      5.5502680251376582      16.362818163912056      4.6681394674006107
   131   1      6.0690887762449588      16.073609407307885      7.1327081169405719
   132   1      3.4481779490755917      14.410739456129294      7.8115208506414957
   133   1      6.6597392049692106      18.245277358427156      5.7163851182437959
   134   1      6.2379616842894547       20.53187318900931       4.342455745934017
   135   1      5.2561479769651198      18.413667377788727      7.8588850771510552
   136   1      17.791404627377187      10.886698716398287      5.3394341975361179
   137   1      18.434530212534252      9.3196035498831336      7.0939872333066196
   138   1      15.783873986572292      10.028948452350225      6.6465616676933488
   139   1     0.57653550945522669      12.519830933443641      4.5714891424791748
   140   1       18.63624761549006      14.709930155953893      4.5377604265357769
   141   1     0.81587708401817893      14.011892959175897      7.0460536357866079
   142   1      17.507211903547862      13.070806484821892      6.4868429470657984
   143   1      2.2292152671873948      15.043897973578179      5.3413752295225745
   144   1      1.7348373836159141      18.307787377764612      5.0538171563563914
   145   1      3.4621806508403572      16.929953805452715       6.664544996859771
   146   1     0.46325461737484019      16.512085972667027      6.1275358861675189
   147   1      4.2902812308721519      18.827329870750205       4.989866588992153
   148   1      3.2948961358657809      19.454118315420761      7.1034799960798898
   149   1      14.432235466857739      9.5133920943930548      4.6613856771264865
   150   1      13.586578734879186      13.150335951097102       4.811854131721744
   151   1      15.577590866596854      11.920580612274559      5.2442523776535799
   152   1      13.144949704712108      11.023027120178671      6.0335027218636927
   153   1      16.181114074157051      14.159213636359295       4.344664677210881
   154   1      15.337318135756425      16.377905348082418      5.1446703292317606
   155   1      17.389700423744493       15.43657388876059      6.5141583745993632
   156   1      15.001975273979129      14.363545925977625       6.410095726485598
   157   1      17.921662149276003      17.431017344202417      4.3138033164220282
   158   1      17.387039848412805      19.913732124106939      3.4748507190982987
   159   1       18.75476894407409      19.804262594490606      5.3896061069680838
   160   1      17.201626614982295      18.047678899682726      6.5303910798780853
   161   1      9.2055879243870251      9.5475001007188283      5.0856236136240316
   162   1      11.018314946308514      9.8191347460774274      6.8731958646946447
   163   1      12.709830705198177      11.129755687843788      3.6515771386320668
   164   1      11.309849713698634      13.740420958873315       4.256728275590139
   165   1      12.066420190574561      13.238113230430908      6.8100588885820468
   166   1       10.78452688068276      11.505124238320318      5.1631764804522415
   167   1      12.737726804092356      15.405299887951271      5.4332785814207432
   168   1      12.880894089382767      17.595450354700841      4.2537982626628121
   169   1      13.510871463669298       17.36381646382155      6.6452371774295917
   170   1      10.978167974738355      15.831269990650437      7.1772051044537521
   171   1      15.511829560500528      18.521401985400438      4.3104348975102171
   172   1       16.31624558139578      20.422868589507264      5.9583709189807914
   173   1      13.869686436810436       19.97611427109015       5.188269230001012
   174   1      6.8475769582174415      9.9066399281860207      4.5268001154613877
   175   1      7.2793735366794312      10.849840095224733      7.0853920542719999
   176   1      8.2604607754192063      12.033559101962261      4.7046569174863082
   177   1      7.6618394610703664      15.307989705609391       5.340637171221271
   178   1      9.6433758634687532       13.83475199590761      6.0468942939125441
   179   1      10.257478633566294      16.025336858367563      4.7685835626997219
   180   1      8.9466180291129014      19.585154322522332      4.9850551524997444
   181   1      11.073142052953122      17.972634812191149      6.0218514954677449
   182   1      8.7902284486931261      17.188586734567576      6.4695918303286239
   183   1       10.21211930835554      20.620508946608922       6.839901716848197
   184   1      7.8626693703683488      19.659587300132742      7.2692186864356652
   185   1      18.044343709382375      6.8624006942792946      6.6405954634153739
   186   1      18.519837222534999      4.9553468883080871      5.0028001553363763
   187   1      17.344717122151469      8.5094380345700067      4.9069417491577791
   188   1      18.304239093763375     0.55891824174345162      6.7942677901397648
   189   1      15.984072829973499      1.6843498169197679       6.740513474179596
   190   1      17.671203377453992      2.6736950234489374      5.1521870541481043
   191   1      17.292319688709309     0.49156607609481695       4.517682116109067
   192   1      16.909340719039761      4.3029377066486711      6.7654298684460343
   193   1      14.585541194362651      5.3037363689925323      6.6476855323526687
   194   1      16.263082471469207      5.9898878727643767      4.9652865416117624
   195   1      15.421090984541209      3.6051187790773325      4.9242856484526492
   196   1      15.566232875083468      7.6885222426978057      6.4976008219876524
   197   1      13.364599899565752      8.8445916136222422      6.9579857800649991
   198   1      13.798019224099312      7.0966811467740225       4.868797913691056
   199   1       14.33153940506018    -0.16605532525392977      7.1867523679412306
   200   1      12.013645553312061     0.16453339131781028      8.3226918499477893
   201   1      14.617031138124787      1.0948857323256738      4.7872943992970622
   202   1      13.697192524546526       2.724098333060772      6.5286000877458648
   203   1      11.404655680062794       4.006637843222923      6.5481810292336808
   204   1      13.034074311568149      4.7131635655099631      4.8625383109193452
   205   1      11.877825578456013      2.3893162436941955       4.771321879278303
   206   1      12.315638040453853      6.4552681034549435      6.6186001671079495
   207   1      9.9887695220039614      7.5026251847020058      6.3411364910727359
   208   1      11.779193661832867      8.6905163928366331       4.889541144934217
   209   1      10.723452545096212      5.7074836672771516      4.8273799744501611
   210   1      12.372541764361662     0.41160169835678551       5.987982225845931
   211   1       10.36680260045031       1.653692050670762      6.8741203406282452
   212   1      7.9680032673292267      2.6070224737904351      6.7517853147912676
   213   1      9.4907605278826779      2.9934186700682095      4.7613184069180461
   214   1      10.199891113114852     0.45738725737054614      4.7598203262929006
   215   1      9.0211968961889326      4.9665289347185864       6.422799097653999
   216   1      6.5923773246936701      5.8642350920828861      6.3480855975504848
   217   1      8.2651501616324925      6.7375778854029074      4.8169597313150367
   218   1       7.367252276467938      4.2845173433815065      4.6825968442592876
   219   1      7.4231301663039151      8.3513369309085537       6.488745743779611
   220   1      5.7615543627349979       7.655210392572128      4.7965769524216268
   221   1      7.9027208022859714     0.27193453604138917      5.9865380357286666
   222   1      5.3456981678841613      1.2403868228808119       6.199406137802967
   223   1      6.8022301283309945      1.9978075643939326      4.5637934323776372
   224   1       5.574533488304521     -1.0762688626122567        6.60821037336218
   225   1      5.6617495189515248      3.5692343353468399      6.5353604665622376
   226   1      3.2387182651686466      4.2091847422808666      6.4837108020372227
   227   1       4.946639859867247      5.1417404671969544      4.6602652386782468
   228   1      4.2144380996557187      2.7136125174159296      4.5691289440312568
   229   1      4.0154920918781789      6.5129674805930433      6.4694751255020515
   230   1      1.5581495953644193      7.9168293571403003      6.7201894693530679
   231   1      3.2648063502356197      8.3848472801662641      5.1438327570414444
   232   1      2.6369876312949008      6.1335352770292371       4.470658549367907
   233   1      1.5614608483983015    -0.56383761642931329      6.4333904674885858
   234   1      3.7332418050949925    -0.11851345782697885       5.093929211037457
   235   1      2.7065676782175294      1.8378797783026481      6.1993666863386716
   236   1     0.49251750249537224      3.1710708863243049      6.5576583082549043
   237   1      1.7640164634555866      3.5582965781848395      4.5562343127360592
   238   1     0.69168959477562508      1.1039482235996505      4.8752483518049283
   239   1      1.2644852615666489      5.5782452019877811      6.4715959399721497
   240   1     0.52853782299508889      7.4102082100140514      4.5133662298737613
