(written by ASE)

160 atoms
1 atom types

0.0      12.746228261363814  xlo xhi
0.0      21.302496487578502  ylo yhi
0.0      7.0723586277786685  zlo zhi

Atoms # atomic

     1   1      12.580307843534278      13.277694955739209      1.3264636551015025
     2   1      11.645511690611741      11.259634426382082      3.0697210624918845
     3   1      7.6201471384760957      12.209097232066542      1.3521943797252249
     4   1      9.1505841741704241      10.927513133955843      2.9877308601291306
     5   1      6.6083177457315516      10.848017053333587      3.3006209049564488
     6   1      10.172637609842635      12.559777544897962      1.4809288143044104
     7   1      9.7673286115977174      15.205830218871931      1.3687217672402816
     8   1      11.210585852704705       14.16749761639776      3.1202444362938895
     9   1       8.674499804093891      13.733237528474119      3.0850092018450925
    10   1      12.238961409271024      15.767771240184583      1.3518825606390596
    11   1      11.999124523865571      18.236243952903468      1.3028730077177724
    12   1      10.787174321049678      16.745268104736091       3.098360041363923
    13   1      2.5002343329152263      20.334744382726569      3.0723607642242139
    14   1      2.7774694732294405      10.927512584115831      1.4324933862177693
    15   1      5.2723976558521031      11.259634490121055      1.3505033391622503
    16   1      4.8374716170501353       14.16749754537714      1.2999792734290478
    17   1      6.2071944432666468       13.27769259095481      3.0937618917630725
    18   1      3.7995241819968544      12.559777349757344      2.9392968139422444
    19   1      7.2983920784149507      14.818766030730753      1.2868976298193684
    20   1      6.8421158161394215      17.551231547963386      1.1677527591314885
    21   1      8.2291622553420432      16.411266832624502      3.1153479530269239
    22   1       5.865847381026156      15.767771755906871      3.0683421625178759
    23   1      9.2976053723480145       17.73580348943203      1.3184718797668722
    24   1      10.471271352303614      19.160839822931845      2.8921415752028814
    25   1       7.956716180333161       18.99370583797144      3.2017084435458814
    26   1       0.235205122951679      10.848008686448376      1.1196066949928838
    27   1      1.2470330120105009      12.209097316372876      3.0680305110246495
    28   1      2.3013858648998671      13.733237682599116      1.3352151380726267
    29   1      1.8560485782164982      16.411267133160329      1.3048769407191565
    30   1      3.3942143052480342      15.205830333249066      3.0515028297138649
    31   1      0.9252778855726993      14.818766046669385      3.1333269184184425
    32   1      4.4140598029190032      16.745269323751238      1.3218650883301248
    33   1      4.0981581003478755      19.160836423335343      1.5280842936318921
    34   1      5.6260115391018797      18.236243533550997      3.1173473217911267
    35   1      2.9244899697818809       17.73580255311974      3.1017500090109338
    36   1      8.8733480901945239      20.334744382726562      1.3478657757925796
    37   1     0.46900277534468326      17.551231297785183        3.25247304766151
    38   1      1.5836018794948954      18.993705588376859        1.21851609046758
    39   1      11.645511690611734      8.1073578514925444      3.0697210624918796
    40   1      10.615405755256875      9.6834961389373184      1.1375840239341253
    41   1       10.78717432104968      2.6217241731385426      3.0983600413639261
    42   1      11.999124523865603      1.1307483249711752      1.3028730077177813
    43   1      11.210585852704696      5.1994946614768693      3.1202444362938837
    44   1      8.6744998040939052      5.6337547494005138      3.0850092018450797
    45   1      10.172637609842596      6.8072147329766581      1.4809288143044614
    46   1      9.7673286115977174      4.1611620590026961      1.3687217672402838
    47   1       9.150584174170433      8.4394791439187795      2.9877308601291217
    48   1      6.6083177457315561      8.5189752245410375      3.3006209049564603
    49   1      7.6333140906194776      9.6834961389373149      1.3194279877055795
    50   1      7.6201471384761019      7.1578950458080888      1.3521943797252221
    51   1      10.471271352303607     0.20615245494278078      2.8921415752028956
    52   1      7.9567161803331734     0.37328643990318944      3.2017084435458787
    53   1       9.297605372347995      1.6311887884426106      1.3184718797668753
    54   1      8.2291622553420467      2.9557254452501236      3.1153479530269199
    55   1      5.8658473810261533      3.5992205219677582      3.0683421625178728
    56   1      7.2983920784149516      4.5482262471438739      1.2868976298193666
    57   1       6.842115816139434      1.8157607299112493      1.1677527591314805
    58   1      6.2071944432666353      6.0892996869198255      3.0937618917630756
    59   1      3.7995241819968655      6.8072149281172827      2.9392968139422511
    60   1       5.272397655852096      8.1073577877535712      1.3505033391622463
    61   1      4.8374716170501362      5.1994947324974916      1.2999792734290485
    62   1      4.2422915376515027      9.6834961389373149      3.2826406653185471
    63   1      1.2601996140758214      9.6834961389373184      3.1007932425068105
    64   1      2.7774694732294409      8.4394796937587984      1.4324933862177669
    65   1      6.3973018292738359    -0.96775210485193708      1.5441486481847084
    66   1       5.626011539101861      1.1307487443236328      3.1173473217911454
    67   1      2.9244899697818907      1.6311897247548788      3.1017500090109342
    68   1       4.414059802919005      2.6217229541233982      1.3218650883301215
    69   1      4.0981581003478746     0.20615585453928767      1.5280842936318917
    70   1      3.3942143052480325      4.1611619446255634      3.0515028297138693
    71   1     0.92527788557269885      4.5482262312052431       3.133326918418442
    72   1      2.3013858648998631      5.6337545952755068      1.3352151380726294
    73   1      1.8560485782164995       2.955725144714298      1.3048769407191556
    74   1      1.2470330120105051      7.1578949615017526      3.0680305110246482
    75   1       0.235205122951685      8.5189835914262702      1.1196066949928869
    76   1      12.580307843534287      6.0892973221354039      1.3264636551015132
    77   1    0.024187625620272709    -0.96775210485193419      2.8760759650278476
    78   1      1.5836018794948841      0.3732866894977741      1.2185160904675716
    79   1     0.46900277534467155      1.8157609800894463      3.2524730476614949
    80   1      12.238961409271024       3.599221037690048      1.3518825606390552
    81   1      12.618971622142888      13.272971197912305      4.8580444022195959
    82   1      11.407019885959739      11.781996988112937      6.6535266356795155
    83   1       7.735426052713736      12.282437032231833      4.8546511936552239
    84   1      9.0763152447284448      11.024534683692314      6.7378877574351916
    85   1      6.5617600727586503      10.857400698729712      6.4283208890930954
    86   1      10.190915608922483      12.467008973700453      4.7039320730210914
    87   1      9.7346393466467482       15.19947449093311      4.8230769437087657
    88   1      11.167184044035553      14.250468765757093      6.6045214764072551
    89   1      8.8038691697198725      13.606973689039464      6.6515272669163252
    90   1      12.195559808011694      15.850742976286773      4.8361585873187201
    91   1      11.760633769209718      18.758606031542858      4.8866826530516407
    92   1      10.825836981795295      16.740547930708455      6.6299412056521465
    93   1        3.02660354962206      20.334744382726562      6.6369725563969633
    94   1      2.7032012842032191      11.024534933287127      4.7546954043568839
    95   1      5.0339069011959907      11.781996568760533      4.8390523216054895
    96   1      4.7940700157907941      14.250469281479178      4.8880618745284679
    97   1      6.2458571040118107      13.272972416928571       6.634539355253569
    98   1      3.8178003883529961      12.467009223878771      6.7886523615512093
    99   1      7.2657028134640607       14.81241030279195      4.9049010811296361
   100   1      6.8603938152189796      17.458462976765961      5.0171081281935148
   101   1      8.3585316209677298      16.285002993189703      6.6211885157343655
   102   1      5.8224455723570649      15.850742905266053      6.6564237501834196
   103   1      9.4128842865856477      17.809143289597323      4.8883736936144331
   104   1      10.424713679329791      19.170223468332406       6.836800218845041
   105   1      7.8824472508915298      19.090727387708206      6.5239101740185461
   106   1     0.18864506334979964      10.857404098329534      5.0642636075215908
   107   1      1.3623131939162902      12.282437968544311      6.6379293228996499
   108   1      2.4307545854813144      13.606973388503485      4.8410562546085556
   109   1      1.9854172987980883      16.285002839064816      4.8713944519620505
   110   1      3.3615252781252822      15.199474474994496      6.6695062323078167
   111   1       0.892588858449892       14.81241018841483      6.5876821436031969
   112   1      4.4527235815273265      16.740545565925174      4.8626429689906434
   113   1      4.0515980407465992      19.170231835213713      4.6557860088815719
   114   1      5.3875197344500023      18.758606095281785      6.6059003763812623
   115   1      3.0397701516874207      17.809143205291022       6.604209824913907
   116   1      9.3997173344422631      20.334744382726573      4.8556073015961738
   117   1     0.48727898170143086      17.458463171906434       6.475476127831044
   118   1      1.5093336904683186      19.090727937547875      4.9686727001072137
   119   1      11.407019885959778      7.5849952897617161      6.6535266356794454
   120   1       10.63572959578792      9.6834961389373166      5.0803279620740351
   121   1      10.825836981795304      2.6264443471661845      6.6299412056521421
   122   1       11.76063376920971     0.60838624633177785      4.8866826530516452
   123   1      11.167184044035553      5.1165235121175243      6.6045214764072506
   124   1      8.8038691697198743      5.7600185888351616      6.6515272669163279
   125   1      10.190915608922497      6.8999833041741807      4.7039320730211038
   126   1      9.7346393466467571      4.1675177869415174      4.8230769437087631
   127   1      9.0763152447284288      8.3424575941823207      6.7378877574351881
   128   1        6.56176007275866      8.5095915791449208      6.4283208890930954
   129   1      8.1596833348671787      9.6834961389373131       4.884045089682675
   130   1      7.7354260527137253      7.0845552456428047      4.8546511936552195
   131   1      10.424713679329781     0.19676880954220993      6.8368002188450205
   132   1       7.882447250891536     0.27626489016642458      6.5239101740185506
   133   1      9.4128842865856548      1.5578489882772981      4.8883736936144304
   134   1      8.3585316209677281      3.0819892846849242      6.6211885157343779
   135   1      5.8224455723570641      3.5162493726085753      6.6564237501834231
   136   1      7.2657028134640544      4.5545819750826801      4.9049010811296387
   137   1      6.8603938152189725      1.9085293011086644      5.0171081281935104
   138   1      6.2458571040118089      6.0940198609460552      6.6345393552535663
   139   1      3.8178003883530014       6.899983053995852      6.7886523615512084
   140   1      5.0339069011959863      7.5849957091140903      4.8390523216054753
   141   1      4.7940700157907976      5.1165229963954504      4.8880618745284679
   142   1      4.2626155380777409       9.683496138937322      6.4122552789171747
   143   1      1.7865688307826644      9.6834961389373149      6.6085400781140873
   144   1        2.70320128420322       8.342457344587503      4.7546954043568865
   145   1      6.4176256698048944    -0.96775210485193852      4.6737633378234076
   146   1      5.3875197344500005     0.60838618259284638      6.6059003763812587
   147   1       3.039770151687422      1.5578490725836032      6.6042098249139061
   148   1      4.4527235815273265      2.6264467119494519      4.8626429689906452
   149   1      4.0515980407465975     0.19676044266092524       4.655786008881563
   150   1      3.3615252781252805      4.1675178028801279       6.669506232307814
   151   1     0.89258885844988656      4.5545820894598057      6.5876821436031987
   152   1      2.4307545854813122      5.7600188893711461       4.841056254608552
   153   1      1.9854172987980929      3.0819894388098183      4.8713944519620513
   154   1       1.362313193916288      7.0845543093303229      6.6379293228996339
   155   1     0.18864506334978356      8.5095881795450659      5.0642636075216236
   156   1      12.618971622142892      6.0940210799623378      4.8580444022196128
   157   1    0.044511626046438227    -0.96775210485193686       6.818819979207797
   158   1       1.509333690468329     0.27626434032675035       4.968672700107212
   159   1     0.48727898170143374      1.9085291059681988      6.4754761278310546
   160   1      12.195559808011689      3.5162493015878593      4.8361585873187227
