(written by ASE)

276 atoms
1 atom types

0.0      21.506762889276093  xlo xhi
0.0      21.881034092554525  ylo yhi
0.0      7.0723586277786685  zlo zhi

Atoms # atomic

     1   1      9.5397535027296847      11.563373356226794      1.6273829864629052
     2   1      9.8731660764186238      15.249212814808734      1.6634184988428808
     3   1      9.7254663693315671      13.297179588884434      3.3953591130535958
     4   1       10.39281812897074      19.225429956282397      1.8366633343835934
     5   1      9.8748354345144413      17.237814561447202      3.3329842743222127
     6   1      5.7947920329611398      11.900121830966361      1.6573526197180664
     7   1      7.6273869751835539       11.77319864488096      3.4207107641410341
     8   1      7.8655047380238132      13.554244235520919      1.6745930537064952
     9   1      6.3848679014867269      15.668792079806702      1.7218171397668403
    10   1      8.1651518547471689       15.41696150166862      3.4011555340855724
    11   1      6.1267101177622409      13.789157791126756      3.4603685704681055
    12   1      8.2249961074313518      17.439232303333075      1.5298800855486683
    13   1      8.2556211889718956      19.805737057061659      3.1149691395112113
    14   1        9.91759687428587      19.101843364601354      4.9581831078956746
    15   1       6.943900197786947      17.659755452027479      3.5465469154942464
    16   1      2.3295190987612098      12.830067240307482      1.6465652971737048
    17   1      4.0945881692805806      12.216128675158876      3.4186555082546204
    18   1       1.899230815075073      11.284441012287814      3.3823688886750465
    19   1      4.4304880987775039      14.096553943470688      1.6845156354660673
    20   1       3.130101905473667       16.27832992587588      1.7257968279936449
    21   1      4.6857845187837182      15.918696117912232      3.5378734418721072
    22   1      2.5834358656090703       14.51632995237064       3.453465884265412
    23   1      5.1394594634985031      17.776682202295216      1.9784782747944132
    24   1      4.0895720954045141      20.099868772910344      1.4940790589038442
    25   1       5.200152058409552      19.883685152170383      3.5929667795292404
    26   1      3.1851020988556544      18.348074040662745      3.3524483883187668
    27   1    0.038424218719970579      11.639311040087852       1.577163482995342
    28   1      20.107542651025692      13.641878939823748      1.5467220425517327
    29   1     0.28394275931039392      13.206857410856081      3.4208410098639224
    30   1      19.417174592723544       11.87623479897138      3.4136746037121961
    31   1      0.8660005624581576      14.966105428539246      1.6427928621869035
    32   1      20.972510621630377      17.798985051216182      1.5929793675589441
    33   1      1.2589373336534044      16.837328542261904       3.183630642372782
    34   1      20.805045040574484       15.49833536447176      3.4346024849503691
    35   1      1.8141397635549703      18.898302122278221      1.4921226021597351
    36   1      2.3253720153841857       20.83267878548088      3.1034993745052741
    37   1      22.014320203882786      19.042929989360363      3.8123368661139128
    38   1      17.616896417826222      11.984932710942841      1.2237681551362682
    39   1      17.165946138885484      14.411347427269368      1.7795548143543571
    40   1      18.817079587145706      14.156491054574799       3.472768261451209
    41   1      16.880622429902573      12.530496943110673      3.3965283413359884
    42   1      19.177666456927138      15.968071708651191      1.6437634991575854
    43   1       18.07072146462454      18.099500070032946      1.8048081930161264
    44   1      19.815187571575304      17.739584194539358      3.7305774716271234
    45   1      17.509570073710325      16.271749670698362      3.4184976976878909
    46   1      19.508670478293261      20.041943045683791      1.0565567109017966
    47   1      19.634572175319924      20.166836265922836      3.4155905181880835
    48   1      13.327487681329528      11.244809477796496       1.300896530804275
    49   1      15.125440589277803      12.881228837778137       1.833074312040305
    50   1      13.461745126664407      14.935754136178272      1.7719159160130022
    51   1      15.312035332474371      14.805457967833156       3.406961377960509
    52   1      13.266897736400873      12.963515441175915      3.3911868810965147
    53   1      15.611594863902488      16.265790807629177      1.4961784052983194
    54   1      13.948048987131473      18.130966069717729      1.2978043833261403
    55   1      15.901534078041713      17.993656573392819      3.1544343854797199
    56   1      13.680043937579006      16.839698668174638      3.4291828841314627
    57   1      17.097390371960788      20.139942528558745      2.5508397291045593
    58   1      14.216989828159697       19.56177687559115      3.2177631858726636
    59   1      11.712292467932659      11.010895866518499      3.3693408153505948
    60   1      11.532765164673295      13.196448041436261      1.6963775897854876
    61   1      11.586011610584318      15.082861977525196      3.3897785005871048
    62   1      11.823107633700106       17.03681529971275      1.7724718798721859
    63   1       12.00962427155908      19.032897090711327      3.8071325667219802
    64   1      12.650985599925274      20.175694952834178      1.3624834747180681
    65   1      17.473513555891664       10.11820035432409      3.4166698013315928
    66   1      21.221606830930988      10.236112795400897      3.3851220244652311
    67   1      11.208723763227232      9.5306057005329237      1.2126265062848556
    68   1      19.410314027805171       10.11419869523737      1.6562473213247042
    69   1      5.5205803954187846      10.045022503622619      3.3674515944599013
    70   1      7.4580280157135856       9.989478091929513      1.6931578596175372
    71   1      9.4002399278791913      9.9901227341057925      3.4663454985975259
    72   1      3.6428386176872247      10.087285307580066      1.5906644626222342
    73   1      14.759203322745577      10.841562792172285      3.3913014053200072
    74   1      21.415619116599373      1.0131004242408772      3.3329943968710647
    75   1      20.554036176600821      4.8567353812790888      3.3701568582092483
    76   1      20.714847764510225      2.7633212221819958        1.78258574909622
    77   1       19.68634465592821      8.3667114140634773      3.4184844193758921
    78   1      20.045623807864803      6.6554484900598263      1.6493530181082563
    79   1      17.771179726874681    -0.48156342995099299      4.5609045691421173
    80   1      19.034311259105596     0.36102993572433617      2.3584561116064653
    81   1      19.147030483037522      2.5187216706279369      3.6230076486614622
    82   1      17.233133621315098      4.0777142416031751      3.4751511784050066
    83   1      18.888498180575784       4.475055499329474      1.6430360472606365
    84   1      17.859132503061083      2.3061942546604368      1.4008001696129027
    85   1      18.350476693074278      6.2716270967810219      3.4484059070325288
    86   1      15.750259345292625      8.0549302759591406      3.4394214925212809
    87   1      17.806338453666541      8.1655813546616347       1.829322298545015
    88   1      16.727672275750187      5.8885835191912479      1.7006705849293107
    89   1      15.300773101686888    -0.27532652084045117      3.5127433358524374
    90   1      16.407188776018337     0.30026556891250228       1.386923026873615
    91   1      16.498928361813785      1.7314147187555293      3.4437966354152576
    92   1      13.270326911342682      3.7587834656531882       3.594856234247668
    93   1      15.392290942572906      3.7028301163915494      1.9579061607783819
    94   1      14.097140902963041      1.7214483799936318      2.2860117329925518
    95   1      14.995143696440635      5.5736483311432705      3.4679038375491018
    96   1      12.834117860339775      6.5268386500659306      3.4329340274351496
    97   1      14.596077275113123      7.1036956822245276      1.3872887218583507
    98   1      13.082403969222344      4.9591704887393657      1.4734796598438442
    99   1      13.413835448309458      9.0158781332737714      2.2571428569819894
   100   1      1.2546826871226762      3.4249746771926488      3.0307551518021527
   101   1     0.45476657118313846      6.9491979498633842      3.3991140789326932
   102   1      12.887474213157338    -0.33421346431353327      3.4422930637944043
   103   1      11.925615805574589      1.7918555674927206      3.4748862331838875
   104   1      9.8440556028325741      1.6253680066820564      4.6562836789967887
   105   1      11.640007438819879      2.8634844349386928      1.0878997919977476
   106   1      10.481828662551468    -0.63878200235223881       3.561267514908073
   107   1      10.673914584190539      3.9272850926697869       3.207094128773381
   108   1      10.625098647412008       5.772263330030154      4.7491227026518503
   109   1       10.44068167650676      6.1084429935506623      2.1836315802361912
   110   1      9.1206118207551778      4.0626033070639673      1.2280227326366586
   111   1      11.236558179092924      8.2967500039508337      3.3570814351989906
   112   1      9.0365550913558561      8.1275792253501571      2.0331829006127631
   113   1      8.1077504193503458     0.49557109519814302      3.4321410994862056
   114   1      6.1260400214549406      1.9798386306001658      3.3593360546520219
   115   1      9.8270553372506804      1.7368854967113179       2.245694514144752
   116   1      6.2110479805043655    -0.15489864289043834       2.129209228431808
   117   1      8.2771760262476519      3.0725907768058498      3.4674746278955126
   118   1       5.937271246038863      6.1813984417056007      3.5399076349310601
   119   1       8.448193086432731      5.5644852469693982      3.5591044487026009
   120   1      6.5113061261237579      4.1729125069739199      2.2654319099349287
   121   1      7.2560363068893077      8.1355807649775205      3.6251655586620539
   122   1      5.9151873237547274      8.0557245891451661      1.5528414602103298
   123   1      6.0273456978886566    -0.10486115096038803      4.7616643352998533
   124   1      2.2702868374776752      1.4849457554040719      4.0584299647896769
   125   1      5.2503221948417966       2.313704295599865      1.0335272556210591
   126   1      3.9734378060638718     0.74390035641722585      2.5787584145554456
   127   1      4.2676133552800408      3.6617267776152027      3.4599071410484274
   128   1      2.6185932731895387      5.5314033019444198      3.1853714789704619
   129   1      4.5769798123010785      5.7583680750357162        1.53775388429778
   130   1      3.0316003064730883      3.6216786722207108      1.4067058154242185
   131   1      4.0934284121523197      7.8425363494046056      3.1482539231165032
   132   1      1.9433665461830474      8.9944667029030292      3.3248897244282949
   133   1      2.2692513444985414      7.3478497043368733      1.6142795079934162
   134   1     0.71307470509997095      5.3074509875693092      1.5804643643273426
   135   1    0.059927397143348431      8.6035195540188329      1.6949488293383759
   136   1     0.15025217957034848     -1.1948403628267927      2.0830876484433816
   137   1      1.4550757463750612      1.2797846520238689      1.5744713874698335
   138   1      15.733031114970492      9.7098742105234042      1.4315732741794023
   139   1      9.5433378935266635       11.63645026236544      5.2207092221072964
   140   1      9.8595527340766473      15.191811452122536      5.1949168700974688
   141   1       9.667086973374861      13.424420305807542   -0.079474308581705427
   142   1      10.896101907233186      20.769639812480687      6.6125553793355616
   143   1      10.123181268927457      17.097270902339151    0.004546813244628971
   144   1       5.772934904902467       11.87560481634296      5.1857932138819827
   145   1      7.6160573349862277      11.751418186110122    -0.10810886867522491
   146   1      7.8981832782165933      13.555727848045008      5.1907057088708761
   147   1      6.4736866744592403      15.664653999726459      5.1714894076009177
   148   1      8.0821915377815436      15.420812260690118   -0.046211199224902404
   149   1      6.1234919526867522      13.778875900265195    -0.12595970018124394
   150   1      8.4179818157313786      17.242884318478318      5.3955623325283817
   151   1      7.1172931697446948      19.467812108622518      5.3049482035968598
   152   1      8.7510285443742379        19.3021917039692    0.020944520237806127
   153   1      6.4693852771762677      17.615562952801934    -0.20086628243297605
   154   1      2.3292406083782273      12.761501751240766       5.207684689449672
   155   1      4.1041421372179689      12.211435426967977    -0.10651059104194116
   156   1      1.9036704112703717      11.232937282628859   -0.072524515836114925
   157   1      4.3789544029993381      14.105475927054963      5.1906092826407404
   158   1      2.8200590042921152      16.534797714378477      5.1836701750427334
   159   1      4.7414067686437393      15.889220123603041    -0.17165641943020363
   160   1      2.6699736105784235      14.569162977125254    -0.11458683739767671
   161   1       4.925433821048431       17.83936757879497      4.9831248390088874
   162   1      4.9242564239428344      19.912464787202261      6.2195085134801289
   163   1      6.6187713199569593      19.541199791711612      1.2622162602079117
   164   1      3.7058801460814346        18.0418891134671    0.083011590327843568
   165   1    0.089656430943747575      11.589254276622595      5.2447516990163239
   166   1      20.208098596350457      13.642776041690475      5.3034744090556529
   167   1     0.48040505463110905      13.293394230310025    -0.11242360230848536
   168   1      19.667963308460887      11.854323120287553    -0.13782791836948635
   169   1     0.91720296835217874      14.980217871502273      5.2277622534894892
   170   1      21.522278351595791      17.271111898146845      5.3598559933499565
   171   1      1.3983746488945292      16.909159920328502     0.14812746164169679
   172   1      20.748904927251811      15.552936992472651   -0.086013009964283765
   173   1      2.3544626474417902       19.20356922299154      5.5374887426097246
   174   1     0.61951994475771011      21.105892855592657     -2.0882000265683125
   175   1       21.69886856208257      19.387380378463828    -0.24911326559845701
   176   1      17.624054845830074      12.003474256191538      5.5656959087249041
   177   1      17.067130790960967      14.457575096118607      5.0267344791153956
   178   1      18.454225468971519       14.04634497313832    -0.16499045832254716
   179   1      15.436744481315023      11.575371279514439    -0.12398313208742695
   180   1      19.146335163593879      15.942452454614802      5.2250842968522475
   181   1      17.776723983318018      18.399847227573147      4.8199177290597817
   182   1      19.398196965998711      17.883415122909796    -0.33346286315253026
   183   1      17.456891192883337      16.248862853144736    -0.14282571989598958
   184   1      19.702136087225593      20.099657791766102      5.7279635382995906
   185   1      17.433255415135044      19.988155337630459     -0.1405044409509475
   186   1      13.307762088494687      11.262161167003125      5.5009718653398911
   187   1      15.119850921132054       12.83239299776899      4.9582714774992613
   188   1      13.478587839732917        14.8764858069725      4.9983374316065738
   189   1      15.585528693789302      14.377303136982258    -0.15287255282981588
   190   1      13.389788320773773      13.288240433541743    -0.12679629517315819
   191   1      15.652017027027517       16.50022854389584      5.2008957715199227
   192   1      13.953689574261382      18.265268011398156      5.4172810224317773
   193   1      15.996744638536146      18.105705195971737   -0.036324657035128605
   194   1      13.696711946510863      16.325136400449917    -0.21092619405224378
   195   1      15.829585308305825      19.730046685512836      5.0687606923424493
   196   1      15.072726773883097      20.235031333800649     0.72272092656305997
   197   1      11.322757443750053       11.58196934068776    -0.10360076506604507
   198   1       11.52928057896909      13.194862530030365      5.1246632380468613
   199   1      11.621052042364417      15.056411473046483    -0.10611308007731397
   200   1      11.708490650605516      16.877880000542667      5.0679145271048567
   201   1      11.945151498301195      18.614434260040088    -0.33819817976461269
   202   1      13.463661358751043      20.664697979349366      5.6600833745333485
   203   1      17.669806701236652      9.9473960911143067    -0.14186552512558434
   204   1      21.240194386278578      10.011058711194222    -0.11828407183303667
   205   1      11.198045636941469      9.6534168233196027       5.522704732654212
   206   1      19.436397775441005      10.119732448184312      5.1531708337282671
   207   1      5.5896968795884892      10.034452635967233   -0.098761240572362588
   208   1       7.443283639569807        10.0246782209659      5.1487193097263324
   209   1      9.2152375422414998       9.829967594713704    -0.14352807282234317
   210   1      3.5589229288300697      10.109301167242432      5.2081423986946316
   211   1      13.696343390188026      9.1635339788177408    -0.13040499931980448
   212   1      20.843406474296842     0.15129857534226607     0.34317707715316859
   213   1      20.542593705269777      4.8931952906052194    -0.16290636509396039
   214   1      21.249186495568033      3.1117873774292799       4.885684515407176
   215   1      19.559626345141936       8.319079073182035    -0.14828245953469099
   216   1      20.117535225101008      6.6409633242242387      5.1439598709439327
   217   1      18.415215842731364     0.30161212350391209    -0.09117307665702977
   218   1      19.907408953429385     0.63321265270385718      5.0713946063709345
   219   1      19.720319726798255       2.531906802444932    -0.37663185494055507
   220   1      17.252878250370753      4.0937324716166357     -0.1381841643038012
   221   1      18.914741530646747      4.4415527421059284      5.1780078914827969
   222   1      17.605704793761667      2.1194560575814694      5.5224382384870827
   223   1      18.363062965814347      6.2608295748752418     -0.1510059083401141
   224   1       16.36712390030663      7.7720167314347597    -0.11546613783032827
   225   1      17.813133562515926      8.1714622204443899      5.0084203150045683
   226   1      16.672700609620541      5.9071561660836203      5.1807662166285358
   227   1       13.87142956884257     0.48076119849100479     0.27778952951808644
   228   1      15.917597841000223    0.092424549029964179      5.9673944358474174
   229   1      15.701569035236229      2.2059052602763378    0.028442173162056789
   230   1      13.575282103195292      3.1089400604620367    -0.22165608082504765
   231   1       15.38347074156888      3.6238580841839951      4.9909569365479465
   232   1      14.130349082408962      1.5032686584094712      4.8738885932949314
   233   1      15.118757823754379       5.178026230338407   -0.070204067756604538
   234   1      12.236674959299418      7.2417419405210026      1.0228335156230326
   235   1      14.528408436418994        7.17847893752025      5.5369712704916942
   236   1      13.127578523075252      5.1909113019646265      5.6026304578415687
   237   1      13.410412197292278      9.0533490908157255      4.5322999061380491
   238   1     0.95115484541627482      3.4001797486601806     0.10988181031753343
   239   1     0.37730420135042919      7.0510009625815417    -0.17584314032715875
   240   1      11.958821768304587     0.89621327586941291      5.8520361744522154
   241   1      11.591183750502926     0.41354812234799437       1.364205039278976
   242   1      9.7207474974189445      1.5033632388184051    -0.10416329173207289
   243   1      11.532819161352656      3.2802207360683164      5.4975287076848138
   244   1      8.8339202029074109    -0.55406065332996146      5.4546997934566877
   245   1       11.02063530424328       5.120152805717515  -0.0033419871067690361
   246   1      7.6234532048506356      6.2102790288463705      1.3408767383433497
   247   1      12.041526299277534       7.418201076775385      5.6988656485535545
   248   1      9.1348421334008698      3.7469958905408416      5.6453570294743383
   249   1      9.9861782635591325      7.4100165248053216  -0.0075891863196846081
   250   1      9.3241761360320368      7.9497100615832146      4.8238744187836646
   251   1      9.0275098532458973    -0.50095738605130335      1.3251532363285474
   252   1      7.6252517562236166      1.8428750843006447      1.2496813940280629
   253   1      7.3877129937293011      1.8185080060218597      5.6656557043593194
   254   1      7.0655253881550619    -0.34875392471468847      6.9518476518859122
   255   1      7.0265319890896807      3.9431445546124699   -0.021506003491946112
   256   1       5.954234176195186      6.1982028698936853    -0.55438572892505111
   257   1      8.3293426979045861      5.9097059675502077      6.0233105972792753
   258   1      6.4360822279823573      4.1499838954857449      4.7893347249007467
   259   1      7.4834631167694754      8.1454456059020561    -0.34874560087193984
   260   1      5.3736508832284429      8.2610036516137999      5.1671199901642844
   261   1      4.7323513965351429     0.16888635650078365     0.10447452784787044
   262   1      3.0201956425356076      1.7659751694099841    -0.17674138162223213
   263   1      4.7089721919822916      1.9573180709293636      5.2612894280456075
   264   1      3.4144168845864331    -0.31126831908217328       5.148193440127379
   265   1      4.5711170479241696      4.0629773852184918    -0.47136803325765625
   266   1       2.581224381777389      5.5990638746777375   -0.084447069960657276
   267   1      4.0951741353245277      5.8112916325622113      5.0360434168039934
   268   1      2.5296603636383148      3.5999352391992381      5.2658417301535918
   269   1      4.0544254553079027      7.8212178333708939    0.031926469872724302
   270   1      1.9351093979883509      8.9461314674686108    -0.11802213456859897
   271   1      2.4196782738019786      7.4822347530165798      5.1095752526708091
   272   1     0.88142397332005706      5.3353487343125066      5.1488294062117923
   273   1     0.14538821199438667      8.6602224219554387      5.0866150112852448
   274   1      2.1137169920272387    -0.73153526256023782     0.24692308719061692
   275   1     0.81946679399976086      1.3263867393087927      6.0265665586359987
   276   1      15.718350080486569      9.7316543583914079      5.3858934280572139
