(written by ASE)

144 atoms
1 atom types

0.0      11.177922746446793  xlo xhi
0.0      21.859047633829594  ylo yhi
0.0      7.0723586277786685  zlo zhi

Atoms # atomic

     1   1      1.4111813113351246      14.024415194127053      2.2126761544465685
     2   1     0.84148578117006556      12.149504684265494     0.68848605217940684
     3   1      2.0254260619297209      15.768393156530035     0.47580417221038901
     4   1      7.8227395236143966      11.810329978045068      2.2204564789076913
     5   1      10.247644232370307      12.997175307871174      2.2184849735609875
     6   1      9.2538778657338963       15.21550190439023      2.2201228107800195
     7   1      10.943953129674846      14.571402837134542     0.41304809594835451
     8   1      8.6798256749631637      13.391732633571777     0.33317411643677231
     9   1     0.32731445715887753      16.340504280124097      2.2178605330257959
    10   1      10.474312176800677      18.644363137165122      2.2059106030905578
    11   1     0.94830321177393118      18.121323080695625     0.44018920412597845
    12   1      9.8670294068998725      16.938131559193199     0.41400057884825014
    13   1      1.4461844630662617      19.897026408050053      2.1929691383409557
    14   1    -0.12340189893467837      20.588080353878027     0.23928022942757796
    15   1      4.9529231434352372      12.624820134055289      2.2230914759797766
    16   1      6.4399329807745636      12.166530383639198     0.21052821950157929
    17   1      7.0432104913773594      14.039697023386559      2.2224224793081082
    18   1      5.9781980218403925      16.356816777011975       2.216647124946427
    19   1      7.6124922196289253      15.768000247414834     0.42279348741052469
    20   1      5.3584245382173474      14.569277827140233      0.4865260343670379
    21   1      8.2335099702785861      17.524324781344802      2.2152986151732277
    22   1       7.203399618241586      19.798494520897279      2.2375092247643549
    23   1      8.7887214674820893      19.325263130306176     0.38109198202833433
    24   1       6.533780022898247      18.130731359392911     0.45734498352920067
    25   1      2.7487145849262835       11.36035366560918      2.2218561169872211
    26   1       3.093497024253915      13.379662271377082     0.56796569879586056
    27   1      3.7143474601268887      15.161779503682112      2.2149069090504554
    28   1      2.5814988791079756      17.542041294756078       2.218092021810139
    29   1      4.2817250660462731      16.942960192928552     0.48377480426181174
    30   1      4.8643723658475544       18.71265894290347      2.2277359394444249
    31   1      5.4801329466530637      20.536395562935525     0.64550895395886165
    32   1      3.2185993836705813      19.315138467457174     0.51339984006292128
    33   1      9.7667089031502154      8.8416704924058731     0.71246630859659632
    34   1       10.30682149452376      7.0521288930149932       2.210869494726889
    35   1      9.7644732871402038      11.175293699852084     0.73466143548756346
    36   1      9.9037040949611317     0.91453181496089408     0.80900719828967615
    37   1      11.945957038564005      0.3201762741627332      2.2039967569295609
    38   1      9.8759214871068917      3.1403778062916881    0.077813590347921693
    39   1      7.7009850205065655      4.2357430333766359     0.11958616030809163
    40   1      9.0959284186930045      4.6592073917208534      2.2476591222398681
    41   1      8.4170373051120588      2.2462165954356417      2.3770479816261001
    42   1      8.7080785643233316      6.5820949294516042     0.45930948640301561
    43   1      6.4644385803568811      7.8299081818425007     0.23572928202691668
    44   1       7.835382898594534      8.1891957587083013      2.2239954250317049
    45   1      6.9469091224500499      5.9643503411695429      2.2625040690971514
    46   1      7.5396738125623752      10.001675542907636     0.63629789129374814
    47   1      5.5051109656753203      10.026971711368404      2.2701325183642798
    48   1      7.7108032485849733    -0.17742667994475617     0.76394726777847155
    49   1      9.5817454278869789     -1.0060472621033618      2.2163848781989017
    50   1      6.8353640992168296      2.0265564686400248     0.43464899505513671
    51   1      4.4326536836712274      3.1511613065125523     0.85697311895307038
    52   1      6.3535449635634711      3.6829876550431679      2.2390751549319328
    53   1      5.6326166224660907     0.87157761255150579       2.188115910914294
    54   1      5.4572915383348297      5.3571797210235879     0.25137867876419251
    55   1       3.148156699702799      6.5994698707823991     0.45117873343504022
    56   1      4.9646160447270757      7.4368661679885921      2.2279634318370931
    57   1       4.046818812083032      5.1229870133701443      2.2249955951497076
    58   1      4.2284498535495914      8.8441800566824273     0.20217499223816388
    59   1      2.0189791391269059      10.005810731772918     0.26186976727533207
    60   1        4.21513971050077      11.174664491145313     0.18323451090456894
    61   1      2.7510788645693767      8.6219669630511309      2.2169967620827773
    62   1      4.4577087811578817     0.90597624185587422    0.063760694217194172
    63   1     0.98214683285539039      2.0237218747392736     0.47306425247183997
    64   1      2.8498627601291813      1.7546073060459231        2.06524770150879
    65   1      3.5677497479300051    -0.62619051504277978      2.1968682940782354
    66   1       2.150381628792577      4.1438829335643996     0.81880376525107579
    67   1      11.022052479730728      5.2911739417373518     0.68090326540957979
    68   1      1.5832534763608397      6.1028873699677471      2.1926183813937206
    69   1   -0.016937451668146881      3.1793504561284034      2.2551940827193264
    70   1     0.86245464000224104      7.8570114705703311     0.65967165551361295
    71   1     0.42084651137462592      9.9845370451076505      2.1867481736399399
    72   1      2.1509466530893846    -0.10001039537344648     0.11216924648214127
    73   1      1.4542491184771276      14.039697022505809      5.7586017919420724
    74   1     0.85097162811893623      12.166530388440242      3.7467075350513017
    75   1      2.0235308474608802      15.768000244827265      3.9589728002939548
    76   1      8.3376759583351898      11.360353664666507      5.7580354228939115
    77   1      10.541884516780236      12.624820134314902      5.7592707979554927
    78   1      9.3033088334803029      15.161779503994435      5.7510862191490029
    79   1      10.947385915223578      14.569277832894041      4.0227053529890089
    80   1      8.6824583800889581      13.379662284401904      4.1041450255980934
    81   1     0.38923664764485527      16.356816777060956       5.752826438449838
    82   1      10.453333738248364      18.712658941082335      5.7639152453628935
    83   1     0.94481864528580162      18.130731359845381      3.9935242937949109
    84   1       9.870686439944949      16.942960193531395      4.0199541194904791
    85   1      1.6144382497794565      19.798494524128984      5.7736885513557752
    86   1    -0.10882841542959827      20.536395582024355      4.1816882858888542
    87   1      4.6586828595520728      12.997175307271476      5.7546643445722756
    88   1      6.4304471704733448      12.149504685735142      4.2246653639680742
    89   1      7.0001426851676385      14.024415194374763      5.7488554580723026
    90   1      5.9162758287338484      16.340504282210478      5.7540398464361333
    91   1      7.6143874360296184      15.768393153956398      4.0119834866177326
    92   1      5.3549917604028074      14.571402842783616      3.9492274047872229
    93   1      8.1704602535754276      17.542041292391197      5.7542713357753419
    94   1      7.0351458308670729      19.897026436009273      5.7291484498256144
    95   1      8.8075607639546654      19.315138459600465      4.0495791582998715
    96   1      6.5372645787732369       18.12132307964491      3.9763685180641306
    97   1      2.2337781492331468      11.810329979454357      5.7566357988422485
    98   1      3.0908642838815146      13.391732646796408      3.8693534174371504
    99   1      3.6649164925652813       15.21550190486127      5.7563021246295314
   100   1      2.6445485988492456      17.524324780950849      5.7514779310090791
   101   1      4.2780680343129074      16.938131561068133      3.9501798945177127
   102   1      4.8853508081135786      18.644363121194633      5.7420899125154738
   103   1      5.4655594878347324      20.588080357554677       3.775459525752991
   104   1      3.1997600992232922      19.325263117586275      3.9172712852046669
   105   1      9.8174111929093986      8.8441801863778444      3.7383543382846116
   106   1      10.553577411967634      7.4368661734691202      5.7641427673275283
   107   1      9.8041010647758373      11.174664401636665      3.7194138396606196
   108   1       10.04667027528164     0.90597627118104107      3.5999401704876486
   109   1      11.221577843619023     0.87157747167399324      5.7242946672487411
   110   1      10.021614929625233      3.1511613187484109      4.3931525926041797
   111   1      7.7393430890628521      4.1438830320241244       4.354983118312342
   112   1      9.6357801815265969      5.1229869925244644      5.7611748081323659
   113   1      8.4388242419713659       1.754607338598094        5.60142707682453
   114   1      8.7371179786452835      6.5994698093423061      3.9873581536597973
   115   1      6.4514160801033373      7.8570114654278731       4.195850955608174
   116   1      8.3400402396349023      8.6219669622234374       5.753176051338782
   117   1      7.1722148632234966      6.1028873744255057      5.7287975719184079
   118   1      7.6079405308688761      10.005810725492053      3.7980490909453954
   119   1      6.0098078832882793      9.9845370451254514      5.7229274867657729
   120   1      7.7399079357210283    -0.10001031326314914      3.6483486035365855
   121   1      9.1567111361493705     -0.6261905056591559      5.7330476185478805
   122   1      6.5711082213054954      2.0237215237634616      4.0092427122614511
   123   1        4.28696008713582      3.1403778411004435      3.6139928634837428
   124   1      5.5720237440857368      3.1793506126364965      5.7913739474178669
   125   1      6.3569956498213536     0.32017617772034557      5.7401761306608563
   126   1      5.4330911076136914      5.2911739177007826      4.2170825369591487
   127   1      3.1191171081313929      6.5820948607831484       3.995488700239755
   128   1      4.7178601196016041      7.0521288868200482       5.747049039151654
   129   1      3.5069670668871247      4.6592073817297548      5.7838384270416388
   130   1       4.177747499948703      8.8416706221518613      4.2486455880436109
   131   1      1.9507124540093503      10.001675527734664      4.1724772023927095
   132   1      4.1755119022784548      11.175293613559313      4.2708407337985923
   133   1      2.2464215332240096      8.1891957821072001      5.7601747398979244
   134   1      4.3147427547864012     0.91453182599251159      4.3451864766637849
   135   1      1.2464027235184452      2.0265562605359362      3.9708285181385494
   136   1      2.8280760396692211      2.2462165648314492      5.9132272187468233
   137   1      3.9927840451379395     -1.0060472144592854      5.7525642507419148
   138   1      2.1120236855373165      4.2357431271192914      3.6557654546275709
   139   1      11.046252926997736      5.3571797150829932      3.7875580408806839
   140   1      1.3579477347510804       5.964350277669527      5.7986833815570717
   141   1       0.764583581216844      3.6829877752764846      5.7752543967577132
   142   1     0.87547727549153997      7.8299081769230234      3.7719086014068015
   143   1   -0.083850405809423351      10.026971711610145        5.80631182337412
   144   1      2.1218418311200802    -0.17742661594070303      4.3001265740522738
