(written by ASE)

224 atoms
1 atom types

0.0      18.030518817995052  xlo xhi
0.0      21.236565580144148  ylo yhi
0.0      7.0723586277786685  zlo zhi

Atoms # atomic

     1   1      14.242905126985715      11.485565804379117    0.066954436221310906
     2   1      14.826569828342887      14.680501949179817    0.044380658066427554
     3   1      14.635522487774891      12.958700799785491      1.9579717231494154
     4   1      15.111070863849562      16.476056700117017      1.7780470698090372
     5   1      12.358275375369521      9.7435992104680622    0.041249274631104407
     6   1       10.79786194904146      11.652271586514763    0.048281586985420538
     7   1      12.478624362020129      11.539327044661025      1.8648581995225437
     8   1      10.599933993997954      9.6904953029761298      1.8777393764687911
     9   1      12.730521856429698      13.334346954767582    0.060620673079795941
    10   1      11.342290625595169      15.382955543810235    0.068594835780711169
    11   1      13.106920371485034      15.033680089633011      1.9001751634138391
    12   1      11.021200715695732       13.60384940445328      1.8558846381764027
    13   1      13.322451114934992      16.793662983296844    0.061522393508908618
    14   1      12.310941741288929      19.036908020570735    -0.26788258639296436
    15   1      13.441654656347268      18.838035078661175      2.0431772102250352
    16   1      11.732481423021881      17.092249304437239      1.9490638524654154
    17   1      8.9289843366703145       9.807036691342633  0.00065233712858041814
    18   1      7.4110976138780824      12.508167413726397    0.046446261591496833
    19   1      9.1538170862341772      11.929634759072709      1.7668671488364791
    20   1      7.0748865402146883      10.822353234192116      1.7153496141794353
    21   1       9.380835201872932      13.916243268489492    0.059205063146746284
    22   1      7.9059526328942162      16.095777904921185    0.095416346901443155
    23   1      9.6205215243588089      15.859865144269088      1.8644073571514892
    24   1      7.6843365243963699      14.250711298076373      1.8370585221354521
    25   1      10.070723008313674      17.502531641459587    0.032894735346391875
    26   1      7.3269417375326027       20.17852657441561    -0.60921496431632871
    27   1      10.697033953483698      19.144227988666533      1.7231125459906367
    28   1      8.2651660841846226      18.161766283931996      1.5631579859125828
    29   1       3.147110112375533      9.7447632777162649    0.058201340453016073
    30   1      5.1576380915213313      11.459383209655758    0.037625662058470004
    31   1      3.7159668764068661      13.369998981786324    0.044942846656591734
    32   1      5.5704869698271144       12.92967586235412      1.9029796251406317
    33   1      3.3472887332539991      11.577128530791938       1.863795060993038
    34   1      5.8925775172103831      14.581810665517525    0.032511537635260344
    35   1      4.4427916302832164        16.7750978686873    0.039976605891422573
    36   1      6.1810156363212521      16.402733863940895      1.7879367824148553
    37   1      4.1464324769665595      15.041443079281409      1.8692899370301426
    38   1      6.1227517991995617      18.414847310020914     0.33293088286695266
    39   1      4.4445515454268136      18.901261901436502      2.0529638449425001
    40   1      4.9968046933531394         9.7270221670304      1.6223990531893167
    41   1       18.13947853063766      9.6849484266035475   -0.093327535298846034
    42   1      1.3277265903305007      9.7098787030811078      1.9999399529733086
    43   1      1.8015400970588953       11.73962725845125    0.028655438146399318
    44   1     0.37178296429017971      14.075141517170108    0.058219967044905251
    45   1      2.0144417755305124      13.729025325925036      1.8328506625242222
    46   1     0.14755996243614913      12.119193788271023      1.6778378216121661
    47   1      2.3604486963201681      15.474899097779524    0.058103417276911533
    48   1      1.0127032966858855      17.619636044532719    -0.13107548820186496
    49   1      2.8292420813002117      17.114556932979777      1.8659587018519543
    50   1     0.61652100955170797      16.092228630702547      1.8586498387817987
    51   1       3.286333986855777      19.002382910593976    -0.21983137401960506
    52   1       1.506371251069851      19.000110033816185      1.7555904998713274
    53   1      16.246648671398127      10.864067955439944      1.5353849518262603
    54   1      16.363987579712322      12.783982746030642    0.071559937044011132
    55   1      16.691245446467054      14.405898709321354      1.8801005216327504
    56   1      16.885245767836995      16.154260616493602    0.079228229835122774
    57   1      15.034383778025536      18.444548063070059     0.25019436239383835
    58   1      17.164626256336966      18.187786317893018      1.5445795712147619
    59   1      16.287101795806173      20.226510828150509    -0.61421383315107569
    60   1      14.180569574223739      9.7354802055603322      1.6699253119198492
    61   1      17.428152286436898      3.1258903571923313    -0.25509866788557833
    62   1      18.517322825548892      1.4394276936096091      1.4165311690577191
    63   1      16.534976531286965      6.6385878688834437   -0.029917668204662334
    64   1      17.176828465741341      5.1390199830627576      1.7223627765607961
    65   1       16.44455418129343      8.5433864545649651      1.5458678713472571
    66   1      16.026523468292439       1.128140236032833     0.33209408730491702
    67   1        13.8330801922852      2.1851859605671948    -0.25982781832456431
    68   1      16.169969016431686      2.9968101434461598      1.8560333162271692
    69   1       15.39543784895791      -0.893140206436566       2.161239032397253
    70   1      15.181402508907684      4.4168119670617561   -0.050569980603665715
    71   1       13.23949749826151       6.063864396714056     0.11614179803379567
    72   1      14.985743851034512      6.4587459404309353      1.8710964889375152
    73   1        13.7813324610962      3.9713075166925935      2.0439141904929361
    74   1      14.420658565321563      8.0620715075684615    0.031962233106572042
    75   1      12.667175325102924      7.9029523788457103      1.8994076039210439
    76   1      13.841717677186809    -0.29883612580178587     0.32465590473177436
    77   1      11.175277103345236      1.9017935275801203    -0.54647363849827213
    78   1      12.159627586516129      1.9838736728066799      1.7542287012777118
    79   1      11.262588737393861    -0.10371424305531884     0.68751145505033096
    80   1      12.139375223121601      4.0071497784185972     0.15902276803831691
    81   1      9.7792974195823934      5.5197793987616031     -0.1056869690490233
    82   1      11.335886048804571      5.8598157388914336      1.7419499870081951
    83   1      10.107636843483082      3.7030031091075282       1.564220674439168
    84   1      11.129159555531281      7.7216751763491107   -0.024125781995747424
    85   1      9.3276279679933065      7.4603468938719635       1.551763915841057
    86   1      8.7926199781382053    -0.69323029649094225      1.2469295335810049
    87   1      7.0684434682423438      1.1307223258589922     0.30861074628800156
    88   1      9.5266364266904393      1.4857347176031224      1.4367832875079827
    89   1      8.5260220607581214      3.0966408069773608    -0.32097408241034997
    90   1      6.2438821974616427      4.2830381527355934   -0.045356499804544662
    91   1      8.1604783967577781      5.1937612481307438      1.7339629065858326
    92   1      7.2961253465010527      2.9724492580574609      1.8567815288036411
    93   1      7.3985318346657118      6.5961429557821658   -0.052989846875614373
    94   1      5.1756319979848122      8.0096639207600351   -0.012844273760799328
    95   1      7.1893357684291193      8.5089178492062558       1.425983069594748
    96   1      5.9080412994012708      6.4102977913667543      1.8820337699929053
    97   1      4.9216721887535657    -0.36537888202234153     0.35724467092418349
    98   1      6.4635658678879384    -0.89408810109313275      2.1809805283726873
    99   1      4.8122442607003073      2.0613641518704648    -0.29828511593566043
   100   1      3.1077668721902842      3.8371922589301679    0.025350055147191543
   101   1      4.7367312401638548      3.9136799326528058      1.9712437475266626
   102   1      3.1634033958319105      1.9464662158491397      1.7535547057635241
   103   1      4.2928473160651377      5.8797233192505054    0.053445486292496291
   104   1      2.2615374671830106      7.5695242509316989   -0.084137610453429088
   105   1      3.5721527823925379       7.831133030585363       1.937430053564442
   106   1      2.4323960671573039      5.6809101893961982      1.7028829161289818
   107   1      17.758881128228989    -0.70431050891957059      1.2731916385310005
   108   1      2.3863845519623132    -0.22662762892387939     0.94953879524465101
   109   1      2.0483728641136487      1.6432418689172419    -0.55391266406421402
   110   1      1.1256395935826711      3.6263004131112564      1.5671987885134255
   111   1     0.81625247551443114      5.3987735595403308    -0.11086491344218638
   112   1     0.46229066151180359      7.2945935050611821      1.4749655056910804
   113   1      14.571825532215273      11.098651843371515      3.5642375140982558
   114   1      14.916211839935576      14.772911489393199      3.6183612744930724
   115   1      14.617589876201817      12.924963806900983      5.2270750064862819
   116   1      15.116722745380864      16.576699047954698      5.4289401151710237
   117   1      12.477082471984929       9.733493148959651      3.5490109038208861
   118   1      10.685514677697801      11.624372843186084      3.5741668079896836
   119   1      12.464466931018809      11.533800077410381      5.2961371892525753
   120   1      10.634106731351816      9.6846967953450189      5.2399580938034891
   121   1       12.77324012450276      13.251556265222613      3.5938995460066052
   122   1       11.31032681785722      15.424750285922197      3.6331377878852567
   123   1      13.109424135543859      15.044785556260615      5.3192824701767858
   124   1      11.024992997456607      13.588573922450868       5.339597082618341
   125   1      13.454678078280997      16.937347718392125      3.6895107936938598
   126   1      11.885154183180825      19.054590487848181      4.0035300467044745
   127   1      14.199821927843306      19.272369188243619      5.0337191831489356
   128   1      11.647482818477243      17.143539979236227      5.3369832948757283
   129   1      8.5927252898539059      9.6537222684509736      3.5824426647485303
   130   1      7.4898606045827636      12.361708703533354      3.5770926187163985
   131   1      9.1562814822233793       11.92614086347516      5.3921151017806634
   132   1      7.0577475625806283      10.841572538236735       5.432105368718501
   133   1      9.3568469461508741       13.90189222488643      3.5954654440814702
   134   1      7.9493490519662382       16.13047054554006      3.5832147325241794
   135   1      9.5813577125459464      15.806807655856343      5.3594085685838078
   136   1      7.6652979521889586      14.255315623722998      5.3462630638807527
   137   1      9.6972939340391324      17.916574696671606      3.7338008262923923
   138   1       8.017146949247449      19.955337391025086       4.119945773289416
   139   1      10.004056869076695      19.648399230995487      5.8429844600923309
   140   1      8.0449287197159745      18.010025037572557      5.6399735244302294
   141   1      3.3549822102826732      9.7287504994086103      3.4819311088376996
   142   1      5.3394615872081044      11.155576098748064      3.5452970694812258
   143   1      3.7249396523932807      13.299118396134814      3.5746616714706718
   144   1      5.5611879526534596       12.90230552101573      5.2424407694021227
   145   1      3.3631351340607845      11.561221897906037      5.2527436872482385
   146   1       5.935425033049027      14.695414596656198      3.6049495179140907
   147   1      4.5127434847232557      16.924430854451639      3.6498744859247263
   148   1       6.189194557670592      16.505916678315295      5.3998116541090093
   149   1      4.1494450598239068      15.045702436269774      5.3104420881977585
   150   1      6.6398643716049346      18.137159214818116      3.3768428675084472
   151   1      5.2233277762799464      19.157066990916668       5.085889113949408
   152   1      4.9639935036879193      9.7529680491210691      5.4549589845316913
   153   1      17.435910721414306      9.8407426507357947      3.7139017971212245
   154   1      1.5851392373032256      9.6889781597451901      5.1029908204515317
   155   1      1.5467323882556354      11.731791935923807      3.5690591968597469
   156   1     0.36002827939329263      14.034158062351342      3.5812452347525947
   157   1      2.0213484315403805      13.685304946038334      5.3345249144112437
   158   1     0.13868922839416881      12.070576598733489      5.4742501317093035
   159   1      2.3457848212487025      15.508014551426927      3.5997189613477989
   160   1     0.70753456141882898      17.982676432883036      3.8863909976839484
   161   1      2.7771757614533987       17.12896639716902      5.3537722560341532
   162   1     0.59071226440798441      15.868703190868267      5.3312529017874368
   163   1      2.9033642293389361      19.049006147915492      4.0107154813282779
   164   1     0.97437454810791224      19.938500498396873      5.9489612059958903
   165   1       16.17760486067138      10.898237003462899       5.680559529745886
   166   1      16.592994212330513      12.410573262033054      3.5885821904418509
   167   1      16.659975668220643      14.376723332218095      5.3119135935576294
   168   1      16.942924169031446       16.23262148569318      3.5900254352524605
   169   1      15.581709441725899       18.16582493807466       3.400937756395527
   170   1      16.984429453474014      18.081297752912995      5.6384763385483661
   171   1      16.989757555841525      19.992156869192915       4.105219898669727
   172   1      14.139414476483283      9.7626868322551843      5.4604621782819516
   173   1      17.736991816367134      3.2073903527756276      3.6788818499887652
   174   1      17.748351944071274     0.95858814439404993      5.5165960772825811
   175   1      16.919018363616221      7.0767834675733647      3.5429615910589622
   176   1      17.044117872057964      5.0190648024408526        5.32356975107436
   177   1      16.303715753915995      8.5387518142656482      5.5953883359872192
   178   1      16.876104939102742     0.94382259808663382      3.1393347309535984
   179   1      14.499238461699193      1.4321909927781271       2.365070241170069
   180   1      15.625594710921332      2.6801923247147048      4.9386062849269088
   181   1      14.903807512814293     0.37542479566756848       4.861939692577109
   182   1      15.538535569289998      4.7669553393426245      3.5324673735767198
   183   1      13.151041142272849      6.0783585894180492      3.4339493854534431
   184   1      14.868505333953593      6.4489227335064907       5.208411276577781
   185   1      13.547130123805713      4.2769451132116787      5.1210399167745688
   186   1      14.767686847315108      8.3622345067477699      3.5477975088374532
   187   1      12.727108277121632      7.8950497552555046       5.167422021404283
   188   1       12.79842167134292    -0.17176311965283345      2.9516870058361637
   189   1      10.715530261761513      1.7371236451261132      3.8421031747289627
   190   1       13.07985034882446      2.0686869073095639      4.3067085467654511
   191   1      12.162052215052917   -0.062724530902927206      5.3668447938966359
   192   1      11.702954256294277      3.9976898538254875      3.3491934488042143
   193   1      9.7398599299168183      5.5401694303671105      3.6134643053647744
   194   1      11.555057626931184      5.8617822473947507      5.3026412451542049
   195   1      10.438400681558903      3.7682506269481317       5.379481223682582
   196   1       10.76191076394575      7.7735513275517913      3.5554920585463026
   197   1      9.3067826807232699        7.46312052299995      5.5024508470826161
   198   1         10.178459051411    -0.48778551834716694      3.4367233325050326
   199   1      7.9383464819387255     0.93586635410507368      3.2061291881081977
   200   1      8.9729225224290801     0.79617896007505817      5.6563391521379405
   201   1      8.7738314400614428      3.2306177100283873      3.7392289640248295
   202   1      6.5226576104224101      4.6786057084167165      3.4928664270473173
   203   1      8.0098406111768679      5.0197309487205262      5.3096675157667237
   204   1      6.6781460765794698       2.613800295500972      4.9652502079786451
   205   1      7.8079417350520686      7.0746299419778955      3.5437987350028082
   206   1      5.7176290817554767        8.43685845714562       3.522612152346281
   207   1      7.1615258775259081      8.5281003446604675      5.6208336097275362
   208   1      5.8417648409178344      6.4219531237959293      5.1283271298455393
   209   1      3.9152580651560522    -0.15755437830386221      3.0523035980340443
   210   1       5.937317805374934     0.31521544462078938      4.8699831493313059
   211   1      5.5605876130935536       1.455552411318856      2.3795499766175636
   212   1      2.6953933631648352      3.9035746840122063      3.4215698944307533
   213   1        4.64222572325526      4.2027844967798824      5.1035420751537037
   214   1      4.0824181415168477       2.020277812066861      4.3293668375437626
   215   1      4.1233534410754604      5.9750790868967592      3.4283732053139233
   216   1      1.6918995139616102      7.6807560180750079       3.532191497978133
   217   1      3.6595727639065005      7.8275207393768085      5.0283035998496066
   218   1       2.563326976763368      5.6997748382237665      5.2854786762730104
   219   1      19.198175866896879    -0.53259649587300795      3.4462836980192102
   220   1      3.3137135353844043    -0.13643955249075077      5.4389428683657171
   221   1      1.6819642835377961      1.6800986840017722      3.8096123536832556
   222   1       1.317654510132354      3.5909353934909509      5.3993137406743106
   223   1       0.746296624759476      5.4431833507917347      3.5878140380039594
   224   1     0.38348548492744955      7.3642626702747149      5.5181465201847777
