(written by ASE)

180 atoms
1 atom types

0.0      14.584242368018158  xlo xhi
0.0      21.069342155608396  ylo yhi
0.0      7.0723586277786685  zlo zhi

Atoms # atomic

     1   1      6.1537378814408639      12.553123675787662       7.375209708507513
     2   1      5.5024081701375618      11.095747357768326      2.3072698498650213
     3   1      6.6050139536070311      16.736653944131543      7.4306334558982199
     4   1      6.1113940360894361      14.838458822385181      2.1321195807242894
     5   1      3.8275372037557829      11.544105174838231      7.3146932155266109
     6   1       2.356671559594766      13.637294385618697      7.3697958793400105
     7   1      4.1601213681595839      13.259008855456734      1.9702917343452966
     8   1      2.0016330654462799      11.875382489747457      2.1103215900084678
     9   1      4.6006458619635735      15.084911554874127       7.368806148784584
    10   1      2.8080861882314814      17.809440294971445      7.3171165030524365
    11   1      4.7875341040882695      17.071935132771959      1.9270369643012597
    12   1      2.8636903273463155      15.496026697262327      1.9364326747004519
    13   1       5.197525223176326      18.839987135927871       7.292989760573942
    14   1      3.6163303804586282      19.255307298118694      2.3118614748339876
    15   1      12.544889368590834      10.949295553706756      7.2585731384403491
    16   1     0.16177267142761792      12.338374132029619      7.2894355982767411
    17   1      13.564743036223092      14.637004390288109      7.4059967028792544
    18   1     0.67233946525187016      14.042369891647663      2.0781810656349293
    19   1      12.966661793937881      12.916390851532643      2.0037768084216738
    20   1      1.0424356594719939      15.957683871367216      7.4364413882145488
    21   1    -0.04981248658975386      18.100291467805206      7.5602574187785336
    22   1      1.5822398041700614      17.670484562187458      2.4093175619158491
    23   1      14.029723785027882       16.45581750776444      2.2981739320337287
    24   1      1.0502776529160212      19.814992277754001      6.1381144936739727
    25   1      8.9000958905013228      12.382404450253768      7.4502669697440949
    26   1      10.719103588431651      11.593207740677089      1.8075490715978282
    27   1      11.274032304908758      13.560268845231933      7.4446651039482736
    28   1      10.051046142071186      15.772167741036117      7.5164936487430483
    29   1      11.836763766310712      15.261607783443505      2.1432193187307815
    30   1      9.5818529362735774      13.948331228978407      2.1654457927738946
    31   1      12.419171933841717       16.77469300799482      7.3386755093349674
    32   1       11.31861072963194      18.837092050734789      7.0764057706456143
    33   1      12.523546541644491      18.608291828699311      2.0499381594157229
    34   1       10.43372586787623      17.587102708159186      2.1933030953512418
    35   1      7.5369590789245464      12.686369755792951      2.4565016925006877
    36   1      7.7927374120419914      14.478267336800888      7.4555304568563843
    37   1      8.2481243863227025      16.285527498544653       2.071073509996586
    38   1      8.8239988185469027      18.144933008120027      7.5610345047804204
    39   1      8.6840772061388396      19.911079946066582      3.2288933977810164
    40   1      6.8847568503742407      18.557873900427275      2.0860938699466258
    41   1    -0.28150057339276197      10.900075733955196      2.2014696731211867
    42   1      7.8617569188707952      10.565436404898119       6.238920299995625
    43   1      14.277570830444072      4.4138792202330972      6.8663941713475083
    44   1      12.582582777510899      8.2820500606698548      6.5460650401405962
    45   1      13.137263831098185      7.1781060700992168      2.0436877135684304
    46   1      12.073530449072749      9.4785652366348092      2.0715656312499884
    47   1      13.490978940157481    -0.63203471662071831        7.81828051380639
    48   1      15.892424590552389     -1.2058523578595259       1.470577563622975
    49   1        13.3726190231398      1.7806222571208039      7.3258877796510342
    50   1      11.215323219004123      3.3265990718506577      6.7008777570943741
    51   1      12.648545470114707      3.8472127235199562      1.4640409420948701
    52   1      11.385480231464493      1.4307074167212213      1.4925446366810373
    53   1      12.258994943727279      5.8382886165819006      6.9142379621240888
    54   1       10.13714833343734      7.1760719636817134      6.2048288014276878
    55   1      10.769007603285045      7.5114621708500771      1.4042453452332024
    56   1      10.376153692181255      5.0711555254488472       1.133822699475235
    57   1      10.190721682546764      9.7156204264246586      7.2711834531853325
    58   1      7.9234274436758705      10.485534693698156      1.5791407220459053
    59   1      10.476731509585905    -0.77270407041426303      1.6299442087102871
    60   1      9.5777151860377465      1.0443827761896518      6.8740435478324668
    61   1      7.5939242253601558      2.7706965657536138      6.1491322100688039
    62   1       9.095381620816875      3.0670235438999787      1.1386094628926811
    63   1      8.8935982300761669      1.0791271360527754      2.3857001608240997
    64   1      8.7737847022430007      4.7662881522514455      6.3304054142554573
    65   1      6.2525215292722187       6.126335872048041      6.8464493494267549
    66   1       8.361113843446212       6.271660228171096      1.1386305546277076
    67   1      6.8900560957089656      4.0835909433595567      1.2227114736501221
    68   1      8.0315779062525454      8.3954278989332849      7.3768491104694478
    69   1      5.7306285729635338      9.8163953985988304      7.3954692097511856
    70   1      5.6902031708234277      7.7458742363408213      1.6508646846880584
    71   1      7.7195867297963296    -0.71143899969145097      7.6787165245217714
    72   1      3.9361413438000499      1.5276509491335917      6.8435782071869857
    73   1       6.841691631792985      1.5018453806192751     0.82142716676857164
    74   1      5.1528434215374679    -0.18880528140913375      1.4619303017964937
    75   1      5.0613554348230814      3.5471495297102091      6.8475970180110979
    76   1      3.8129481595463965      5.2425126788109919      5.6932119349416173
    77   1      4.5269960464538874      5.5002465622570416      1.3236926035730472
    78   1      3.1734498182925428      3.3871215614656482      1.6562383569514834
    79   1      4.2897253755221989      7.5288784225187575      6.7870896906868454
    80   1      1.5453518376318442      10.321606400705067      7.3954299882959136
    81   1      3.5973825510266835      9.5973830075103983      1.5633050007100286
    82   1      2.0292067267471898      7.9537221712509192     0.42593164936875605
    83   1      3.1993614624175333    -0.62278842483710517      7.2034565403162629
    84   1      1.1681326506407179     0.93736864270595421      7.2356748337111512
    85   1      2.7219808660898956     0.96863230050346771      2.2453610274034235
    86   1        2.22282613950857      3.3639497602824133      6.3555976819106847
    87   1      2.0205052212815797      5.4376628682451109     0.78745573954463743
    88   1      15.310794542067827      2.9512467360044456      1.3508967786678647
    89   1  -0.0032893948924006631      6.6883184076877411      7.2299741653387875
    90   1    -0.21380011713851849      8.9316492114254249     0.98929866585699577
    91   1      5.6435171711622596      13.025387510166185      3.8710958753990048
    92   1      5.4305932579488347      11.068249179814945      5.3714072754238718
    93   1      6.4138498504858505      16.745050433267643      3.8760386327745788
    94   1      6.1803304174947336      14.794624564688409      5.6161455301550074
    95   1      3.6114139341741116      11.335202919393202      3.7982874273430669
    96   1      2.5020635704916647      13.596353599275256      3.8576633431963154
    97   1      4.1281409599601684      13.291706861880742      5.7080831225563857
    98   1      1.9604690141619847      11.769474460791439      5.5284575350028433
    99   1      4.4192766235849694      15.151930919910644      3.8911730125124784
   100   1      3.4086938647832996      17.296266849238709      3.8814863785985527
   101   1      4.8766160002369237      17.027092053503967      5.7661840272735221
   102   1      2.7995178892780785      15.584350352629292      5.7759572895314024
   103   1      5.4868547485422319      19.048179430368307       3.955515610625107
   104   1      3.5417947731117336      19.182449188745807      5.3178592608587669
   105   1      12.430556782309969      11.353810682581143      3.7951519662039379
   106   1     0.21485669417041273      12.398465468606229      3.9613386456444419
   107   1      13.517574487179919      14.562350981582934      3.8447152503701929
   108   1     0.69936914492076863      14.130347598781515      5.6375599858272567
   109   1      12.975588028066557      12.880738153357933      5.6754830828836216
   110   1      1.2850304859126225      15.697169418887492       3.824124101690511
   111   1    -0.28177895337572245      19.021412216273614      3.4670804381689999
   112   1      1.3585343422797667       17.71774862208316      5.1853214226992375
   113   1      14.039691021485385      16.350251245634659      5.4940571080236058
   114   1      1.8649705468757434      19.970029094442744      3.8031207440273418
   115   1      9.4581227961909349      11.573878386851925      3.8621873653676935
   116   1      10.640756941352345      11.829093799111407      5.8970148337875434
   117   1      11.244019171491681      13.426742905396139      3.8415761965881488
   118   1      10.083207749757676      15.710257664278982       3.796342026759056
   119   1      11.820718708091514      15.137193369521817       5.590774323816273
   120   1       9.570741869149769      14.097250530921441      5.6225523484043149
   121   1      12.304373720825748      17.009334524832685       3.940393688259729
   122   1      11.111511276055186      19.172622916657811      4.1289327156583759
   123   1      13.242127597193365      18.835056508181562      5.6274233007571022
   124   1      10.481605784051217      17.251297755239541      5.6110771363351404
   125   1      7.6119944668477872      12.704891453559503      5.2755865838175389
   126   1      7.8480012300836304      14.671854355822118       3.859988844759922
   127   1      8.2419186237725341      16.259485080878171      5.7664598587417109
   128   1      8.6873149712753275      17.749345467632242      3.9756231529832582
   129   1      9.4361899459164693      19.777393886517402      5.8171827271517289
   130   1      7.1631500585868526      18.708434896434287      5.7093573682549312
   131   1    -0.36688411922402558      10.533456744152982      5.5394341427371474
   132   1      7.2479377689965974       10.51781554067029      3.8974389915656737
   133   1      14.542058248027422      5.0054284365401598      2.6322757534863905
   134   1      13.706690798483026      8.9379988339154259      3.7645765096634478
   135   1      13.565714750600074      6.5436974228408751      4.7102310190163763
   136   1      11.350217203682417      9.7249969286325957      5.0333183482296295
   137   1      12.581600318835958    -0.12066068716623642      3.2198766953498139
   138   1      14.081452634044608     0.22882470664964441      5.1270633494105802
   139   1      13.465462221947583      2.3471448593003874      3.0905281223092165
   140   1       10.95455341189243      3.1479557562320895      3.0965940640284759
   141   1      13.046112067978704      4.1889374205799488      4.6613749643819249
   142   1      12.127932082361385      1.9209502397100366      5.0086782028707431
   143   1       11.80084435211961      5.5137226648245798       2.953466254679836
   144   1      9.4426733689434368      6.8160147139383653       3.339799644156253
   145   1      11.511373540137312      7.6614108165912818      4.0173927087958425
   146   1      10.758988439303238      5.1536394530882745      5.0128559008816289
   147   1      9.7166028880993629      9.3107800016422377      2.7163728522761308
   148   1       8.997412062567065      8.9077244614755582      4.9649052919826593
   149   1      11.754407019032191   -0.094585609879592733      6.1716766697494743
   150   1      10.383122881849712     0.47426825480794899      4.1222784879929968
   151   1      7.3371946589334467      2.7220818472673973      3.3185793460344488
   152   1      9.5667316857908027      2.6963923223621782      4.9252699507236706
   153   1      7.9608516543224699     0.56095710306228219       5.127535393956113
   154   1      8.9103858223537369      4.5311113304887698      3.3327752310338448
   155   1      6.8656483816536698      5.8190999223303104      2.8836078564740228
   156   1      7.8790561932786476      6.6755838831232008        5.14057356261302
   157   1      6.5614120519729209      4.5797205703368702      5.0426397926211077
   158   1       7.414679817754724      8.2483736970886561      3.1058168445302763
   159   1      4.7017052392457259      9.0843033337358428      3.7210372389815132
   160   1      6.3459910579716059       8.585261470058029      5.4712062664296299
   161   1      6.6348907424382588     0.19055858092319936      3.1981372639680985
   162   1      5.0681744721855706      2.0573220895831166      2.3288370032978771
   163   1       5.720351046181813      1.9696045761559082      4.9299878520433138
   164   1      5.6877651087511047    -0.25630224657743644      5.9700839824255967
   165   1      5.0833234846114248      4.2261772226022334      3.2931960640981837
   166   1      2.7582966437046004      5.2086574057749555      3.3129083729629585
   167   1      5.1558056047963383      6.7168331628781486      4.2486228196888876
   168   1      3.5677390264220645      2.7819248656767424      4.3836725218849351
   169   1      3.3470922315673719      7.3775105530657727      2.3832570338252141
   170   1      1.7334482367876698      9.5949702709350433       3.437013418699038
   171   1      3.3336998123820281      9.5880276230777071        5.81162223714382
   172   1      2.7889508661655897      7.3637648563267009      4.7917828849470903
   173   1      4.1984934817192041     0.19842576881931376      4.0374624987865015
   174   1     0.33777068140803085     0.61156958831689234      2.6710461336403082
   175   1      2.0087295117164636      1.0006466316917648      4.9742079928718264
   176   1      1.3536991421285307      3.1213494156000676      3.6102845521686899
   177   1      1.1216666504056561      5.3716704349535949      5.1060980192331975
   178   1      14.661439291612412      2.5342598248417074      5.4657838336659594
   179   1     0.93418129437175734       7.201768161763515      2.9307958306932753
   180   1     0.69072830676002894      8.3396758340522048       5.509994781419401
