(written by ASE)

288 atoms
1 atom types

0.0      22.645532498833678  xlo xhi
0.0      21.457554691293904  ylo yhi
0.0      7.0723586277786685  zlo zhi

Atoms # atomic

     1   1      14.097794392444674      14.991731701996446     0.37254606835044324
     2   1      12.875701818240685      13.554761410593025      2.2959596683308345
     3   1      9.2921786923316727      13.654541064840302     0.41211474582286101
     4   1      10.610825296934367      12.490558108089413      2.5224797687250082
     5   1      7.9993902379706485      12.375912268227918      2.2127876421022394
     6   1      11.685262604229449      14.327307889202068     0.39120674725715182
     7   1      11.434778605779057      16.988774413284787     0.39943700348740352
     8   1      12.751346203338613      15.983326861279821      2.1489996657317927
     9   1      10.271340423092616      15.368477741200412      2.0411127927073913
    10   1      14.054277672934328      17.507308113087227     0.25098872830402963
    11   1      13.960999129658108      20.179349237638053     0.27008989951733237
    12   1      12.717263701397009      18.394451760801488      1.9706503220337881
    13   1      4.1042445913345214      13.433724378492826     0.42185176963176807
    14   1      5.4552758856454728      12.214810362611967      2.1780471840754521
    15   1      2.9076078481493131      12.002186976320573      2.1725415795134997
    16   1      6.6753481712944085       13.58420762595162     0.42023605719602608
    17   1      6.3420729254741568       16.41992270662131     0.42971385292648362
    18   1      7.8051339057812932      15.046953785172317       2.084991953948919
    19   1      5.3012136416512829      14.867800679955659       2.118722960887585
    20   1      8.8653330583187113       16.64194209172792     0.42984975049369523
    21   1      8.8127258218488738      19.315439756341704     0.43959706439259916
    22   1      10.128225122978701      18.035054564120049      2.1434544195475742
    23   1       7.635350027729749      17.752707543083424      2.2873434285666483
    24   1      11.212971473382739      19.744425236643405     0.53242645733381411
    25   1      21.699043442874402      12.846769523559173     0.40487332799106041
    26   1      1.5767979461648005      13.119713418067379     0.41254280634503482
    27   1       1.437182090670807       15.63528881661246     0.41660615279732049
    28   1       2.780198096515456      14.598481426816008      2.2016736806628923
    29   1     0.25572614465674953      14.269866498773249      2.1978043903676832
    30   1      3.8495632281557297      16.111497827954274     0.42638955805753292
    31   1      4.0158434312104649      18.510253687914478     0.43043695270067944
    32   1      5.1180175447149905       17.57865604469217      2.4204034283607863
    33   1      2.6520290004754479      17.323594469541646       2.484169877764808
    34   1      6.4476531010448506       18.92149705867924     0.43053705420391986
    35   1      7.5493457804220503      20.472090527955199      2.3291035230869648
    36   1      16.686487772973187      12.609552969807186     0.42224222256110161
    37   1      19.213914848498806      12.656927053963235     0.41994794838812977
    38   1      19.074893578829617      15.369762621319639     0.41551439686307579
    39   1      20.392620605798836      14.057352956137505      2.1859269500769005
    40   1      17.895675707084905      13.971271761788126      2.1447148917192496
    41   1      21.586623350852971      15.446191167520979     0.41718102528515233
    42   1      21.407987434381816      17.936546687193079     0.43108311172212571
    43   1     0.16448333406081886      16.874502966019403      2.2364265580919858
    44   1      20.258796825611196      16.703777658578929      2.2188649423313422
    45   1      1.4798128533014727      18.014185654675352     0.42857663736362273
    46   1      2.4865683715086053      19.754204467595216      1.8364258380484124
    47   1       22.66224396293681      19.412299938589669      1.8527199742822986
    48   1      14.087253439745066      12.488982169270217     0.40822625524203199
    49   1       15.38618786560469       13.87119556210423      2.1661920232162881
    50   1      16.543569213698479      15.349330002306633     0.43964656201820246
    51   1      16.419640800692594      18.015020609108049      0.4911340406281261
    52   1      17.753807041927789      16.663536418202643      2.1926153585433998
    53   1      15.172238736728712      16.604568585733599      2.2595900347190918
    54   1      18.915560539904902      18.030516977134241     0.43881670452529087
    55   1      20.193181809860274      19.382470537321851      2.1300381351602624
    56   1      17.661478783317644      19.369066489148612      2.2249270634974945
    57   1      15.016922903391345      19.334944551356962       2.372870049113514
    58   1      18.964815074042686      20.772833107474149     0.45331933330126284
    59   1      21.743366550765153      10.252766227109433     0.32839889910263365
    60   1      20.524690024682133      11.366197604643013      2.2156827756375392
    61   1      21.665263037260825      4.1847733242834684     0.45351914921641828
    62   1      21.787726279842989      7.6501887306257847     0.43679568533038393
    63   1      19.225961469201405      7.3899228723734076     0.41774537755043289
    64   1      20.537538619678408      8.7466291642246521      2.2357477667068304
    65   1      20.575758764163222      6.0185755517031669      1.9288381146604998
    66   1      19.272998516826139      9.9774587939255106     0.39135402877794723
    67   1      16.747338673208429      9.8375170279755881     0.41443978908485385
    68   1      18.002104603396372      11.264357629707021      2.1440749565702042
    69   1      18.053660096193077      8.5900675951612939       2.244428608506102
    70   1      15.475953850102076      11.195444962885702      2.0843575200165576
    71   1      21.417498620373298    -0.35842112445300039     0.45300693440086004
    72   1      19.616717847661644      1.8995436401993511     0.44285856677254659
    73   1      20.442636503387355      3.3079570446915243      2.4757081738216975
    74   1      20.300769592768127     0.52342690653711899      2.4526094336485538
    75   1      19.220089581832173      4.5072800307591363     0.44701113613751864
    76   1      16.649825947225448      4.5320032822726404     0.48121335712113877
    77   1       17.99482268911208      5.9078803738651953      2.1275738586872448
    78   1      17.899695085983858      3.1705097826647255      2.1346471483033596
    79   1      16.735733417435558      7.2240617383411907     0.43498806479506363
    80   1      14.288974804844894      7.4237131259416085      0.3956793543328358
    81   1      15.536461345722257      8.5730224070015879      2.2154632385444906
    82   1      15.417835332753299      5.8665701814050983      2.2479948508651972
    83   1      14.003398486940021      9.9226623320143954      0.4077659234793492
    84   1      11.632297742387042      11.821221793056235     0.41238611996470087
    85   1      12.944441374681919      11.178976808423519      2.2882509379799538
    86   1      13.020347547750548      8.7604605117563299      2.3336233094322143
    87   1      16.445319305752218    -0.83955648218736267     0.49727558926236293
    88   1      17.725024809072522     0.57951970386201557       2.218421743404225
    89   1      16.567861851154344      1.8728502033397676      0.4765048675844118
    90   1      14.004952241653722      2.1741538557229054     0.24656359771060946
    91   1       15.18727274784556       3.116265995831764      2.2684083889097253
    92   1       15.05006054775963      0.4942225133350216      2.1463652984947932
    93   1      14.223754499984901      4.8596305810851321      0.3255773195660091
    94   1      11.569618057225599      5.3045397808195025     0.39589423224271847
    95   1      12.940837076078894      6.3301753942348435      2.1419101391528166
    96   1      12.813716016759585      3.9270807286844063      2.0016570282029638
    97   1      11.853643106175065      7.9613994081834552     0.41124098177242091
    98   1       9.215005820762908      8.3126108594096948     0.41796444029934887
    99   1      10.674386260481102      9.7146056381717685      1.8330288300879594
   100   1      10.425258994987731      6.8621767361143728      2.0635949932969986
   101   1      9.2420972633311962      11.141852498971708     0.41528548307370639
   102   1      6.7550757503063679      10.964695269714236     0.41920216291932832
   103   1      8.0501029945921836      9.6799360525558455      2.1665899913321223
   104   1      12.694032718119262    -0.68394762877125603      2.1705318209741504
   105   1      10.048201539846493    -0.81737282254610755      2.4252857057823372
   106   1      12.806606563217613      1.5853966287217145      2.2052083485184402
   107   1      11.364087486552409      2.5890224392432222     0.47797261434297911
   108   1        8.96223537151727      2.9459236473004884     0.45235987059556809
   109   1      10.264163023081116       4.230337337655083       2.177281982902433
   110   1      10.186755858975825      1.6376319028432922      2.3700500415006487
   111   1      9.0260225810370454      5.5972998350865346     0.42122543652283478
   112   1      6.4842281955389938       5.637713820347372     0.41140415478885212
   113   1      7.9350523275023406      7.0061287807810935      2.2046339886250541
   114   1      7.7444886665238144       4.343259223172323      2.2016277518444611
   115   1      6.7279966781307872      8.2813143159256004     0.42251403991542086
   116   1      4.2366723798784998        8.16225154535468     0.43106103780566818
   117   1      5.5160810103922868      9.5721720469275002      2.1789601955461708
   118   1      5.4412137401266278      6.9058570195745173      2.2231741581814144
   119   1      4.2232770368109991      10.811098951130482     0.41936184410216898
   120   1      1.6607532086079329      10.538422161164776     0.40577933809334582
   121   1      2.9698685000644591      9.4370724764847083      2.1535191787599444
   122   1      9.2675551420828732      0.3679371051102362      0.3918685389485842
   123   1      6.5347996028368733     0.18928307434971589     0.43745285177520093
   124   1      7.6719555640613741      1.5900667680223666      2.1579436074804463
   125   1      6.4855449390286655      3.0352885765801729     0.46887296039918663
   126   1      3.9044590274762534      3.2293623861482033     0.45037104411596407
   127   1      5.2179645933528525      4.3184480479075074      2.2336303546607765
   128   1      5.1242321428768323      1.6384315434431547      1.9468744651005285
   129   1      3.7639323550101382      5.6541858271376864     0.36731467181131172
   130   1     0.52752660681518282      6.0862397363611125    -0.84305482383610142
   131   1      2.9728990638612558      6.8189565438220123      2.3506975975716617
   132   1      2.7235256304697182      4.2732906157063821      2.5370129785669349
   133   1      1.7951882518947593      7.8311453071761354     0.51597797247907673
   134   1     0.36301758861725908       11.68122624167027      2.1672572323595873
   135   1     0.36146579817291563      9.1197460165506179      2.0560350255080113
   136   1      5.0805983732142073     -1.2070546377289391      1.9885920373981802
   137   1      3.7168503332690026     0.22086877339753316     0.44568023093743708
   138   1      1.2247784907601027   -0.026599085025121486     0.44001477809053668
   139   1      2.2130982385709332      1.9947322477605958      1.6777804927722872
   140   1     0.75535711961733942     0.04837992457828677      2.7863440882635646
   141   1      1.4279005588683213      4.0278123328184261     0.46176864564010595
   142   1     0.50869486287762433      6.1374308189688902       1.819996381651287
   143   1    -0.37631545714065873      1.8294241291205566      1.5790167372263801
   144   1      21.547577443646759     -1.0111398778858212      3.9699305225357384
   145   1      14.063656454738608      15.044497359937372      3.9508316911384127
   146   1      12.899081168437137      13.570902854952838      5.5844436589052808
   147   1      9.0788295575664968      13.858177471912292       3.955624888730688
   148   1       10.61872560569959      12.498518177414985      5.3802936539062332
   149   1      7.9966379354466035      12.376631394627413       5.696288971439933
   150   1      11.453433382144786      14.548742666674299       3.955480306034636
   151   1      11.427372493826477      16.995747584746447       3.936292941906594
   152   1       12.74141305084512      16.076488917656054      5.7123005300564484
   153   1      10.257297132362295      15.392871839379893        5.85426509004441
   154   1      13.824818068571949      17.760805868376529      4.0529974446189589
   155   1       13.73834041762014      20.628505357411392      4.4274317599596387
   156   1      12.541399078282019      18.765339367346701      5.8846506704638246
   157   1      4.1273443085649317      13.392587829305205      3.9531649907836814
   158   1      5.4534430659827704       12.21541492973599       5.732432901132765
   159   1      2.9135331825425439      11.999744655846534      5.7300509798345276
   160   1      6.6121594211806869      13.654435836815326      3.9566435058302449
   161   1      6.5383488318120708      16.216337223196255      3.9591990256629663
   162   1      7.8020973669763114      15.052237555529544      5.8299180222597586
   163   1       5.301928474008152      14.868764034976639      5.8001507675061896
   164   1      9.0343250805338702       16.42673946101614      3.9449482002918441
   165   1      8.8839768854672485      19.129097378671936      3.9741623218349638
   166   1      10.133843317620643      18.039341566198992      5.7669228865382234
   167   1      7.6441235299654906      17.738907057825028      5.6466003047807103
   168   1      11.533670420440977      19.387130419207818      3.8355064574354638
   169   1      21.712822570719723      12.818465518460224       3.952123795628014
   170   1      1.5933075769630638      13.140968561623787      3.9539289355226916
   171   1      1.4368262024031249      15.727069449892864       3.962936028513774
   172   1      2.7851623505113619      14.594230250378061      5.7123021173629631
   173   1     0.25389079150661431      14.267169306810128       5.708061188978049
   174   1      4.0277885626239005      15.909611302658416      3.9598814495945445
   175   1      3.7858303711865946      19.307689825430817      3.9775391495716259
   176   1      5.1200510154422014      17.568163411662756      5.5165122081469251
   177   1      2.6539090091904622      17.320887911480174      5.4467021765394721
   178   1      6.3024675887453876      19.111991186522037      3.9832965462089107
   179   1      7.5850245126694142      20.463537664040274      5.6496424191096777
   180   1      16.728495262792531      12.559230101486387      3.9251026293735478
   181   1      19.184436701559083      12.685958859113262      3.9327895455157047
   182   1      19.062470905070906      15.344670532496504      3.9529623404148215
   183   1      20.380106287418343      14.067570268618997      5.7135402156896316
   184   1      17.887377261012876      13.989932224815949      5.7434026048878541
   185   1      21.576604187323397      15.454241383473596      3.9574185302814668
   186   1      21.490312133758085      18.057773586293649       3.962545746164416
   187   1     0.16078231878209312      16.881659822740001      5.6864374068485377
   188   1      20.253696151718991      16.709924464801162      5.7006286209641974
   189   1      1.2329962642245964      18.927684216104147      3.9730776103601704
   190   1      2.4821895380726278      19.757195991217934      6.1096018276663422
   191   1      22.654668611246187      19.421215693658635      6.0911396004277121
   192   1      14.306281091406476      12.454143854554308      3.9388024546484637
   193   1      15.426208117137229       13.83278342330612      5.7061585349832225
   194   1      16.595117963866901      15.222707357927254      3.8987264621890092
   195   1      16.479876555854826      17.953959359546189      3.9010738572765753
   196   1      17.754369638661533      16.689658577787121      5.7158333278598734
   197   1      15.314816741012475       16.44862564739396      5.5931571360914791
   198   1       18.98965850016878      18.056505773096394      3.9602393146392854
   199   1      20.192931103521772      19.380608342117458       5.818408980486355
   200   1      17.686838556640247      19.358810769464725      5.7440862259842129
   201   1      15.236084468942614      19.118508053038941      5.6297442635710606
   202   1      18.907710245617288      20.641409323384071      3.9830822567767989
   203   1      21.872061676415214      10.111405272356524      4.0125924807357753
   204   1      20.475998754443413      11.432197501236779      5.6693672511073521
   205   1      21.510175262362122      5.1851892912494932      3.9693365649143582
   206   1      21.938571145819427      7.5151926415327415      3.9383372969878301
   207   1      19.436630553345086      7.1772937380713362      3.9649275624748066
   208   1      20.566999645854203      8.7127019353380977      5.6721922340442639
   209   1      20.590473276845319      6.0034632078524046       6.017183704578966
   210   1      19.284767989040898      10.007629480289673      3.9679212301510054
   211   1      16.790864729807012      9.9518006285959402       3.944625673287089
   212   1       17.97498976598078       11.29136828642258       5.747609568663032
   213   1      18.050408695622103      8.5732865929962951      5.6572807081434249
   214   1      15.476373812274133      11.201581362100912      5.8077191780229205
   215   1       21.78861266009941      1.7770830859044595      3.9815012778083791
   216   1      18.966583324237714      1.9377945758480875      3.9904162364186413
   217   1       20.44258603889465      3.3173501904858651      5.4862427679345283
   218   1       20.31491776629672     0.51214163759132558      5.5136070902510301
   219   1      19.088854284685656      4.6842745292301675      3.9649857511190327
   220   1      16.659619581940699      4.4797827606485905      3.9114506038719639
   221   1      18.001097774322115      5.8913362827302445      5.8043886413284529
   222   1      17.916544910076272      3.1948819803460919       5.835558460475367
   223   1      16.843727323858733      7.1778440121599383      3.9331419284778857
   224   1      14.257509867106378       7.294220374198539      3.9576371635006105
   225   1      15.551516488327643      8.5917820602853663      5.6807342482377061
   226   1      15.512147507831632       5.950194472997075      5.6457094647897899
   227   1      14.338065202034965      9.9639600482599828       3.950233623668125
   228   1      11.557348679383985      10.249861690000818      3.9513750328452191
   229   1      12.947226206568871      11.183257427472936      5.6056987380437668
   230   1      13.021061080255043      8.7455810031377776      5.5635664879725857
   231   1      16.358004520780543    -0.72923371627733036      3.9903883238728604
   232   1      17.753312749218463     0.58557840300110964      5.7790805731306083
   233   1      16.440125820910662       1.824418655635857      3.9912108585257782
   234   1      13.840147061250766      1.8350977554322863      4.4300428271771857
   235   1      15.399210599526517      3.3070719140131586      5.7117694090256768
   236   1      15.197620006213828     0.48122531211964775       5.940416450874598
   237   1      14.051590381713956      4.6198559920045437      4.0194970840184139
   238   1      11.623672554982081      5.3104153759528447      3.9538471629593608
   239   1      12.944873700940548      6.2656520285019148      5.7430004285522775
   240   1      12.722155603438937      3.6839259841127814      5.8686805365891068
   241   1      11.612695844464385      7.7264485734930819      3.9507118762635463
   242   1      9.3269237437257324      8.4519748938396226      3.9562993047320485
   243   1      10.676933027887896      9.7146458526127013      6.0711177266691596
   244   1      10.424094076715495      6.8662825094732556      5.8392707438921843
   245   1      9.2240990553152287      11.002504390186843      3.9576293679755294
   246   1      6.7437492331406359      10.959095875182534      3.9558840614716551
   247   1      8.0475347106034167       9.678598486740448      5.7455481609306656
   248   1      11.618700956156626     0.43753497368288202      4.0724439644495387
   249   1      10.216170753560949    -0.90557289490339654      5.5582582121078561
   250   1      12.309519932362695     0.41839864303388707      6.5591425076049754
   251   1      11.597644415268485      2.9154174075829413       3.897883675006832
   252   1      8.9334713689624774      3.0484779926503109       3.956055263223945
   253   1      10.262581592798613      4.2214015340302335        5.73571664588943
   254   1      10.226764791147486      1.7061482567960955      5.5984883026667003
   255   1      9.1732895533928183      5.7328712031511833      3.9613551423749573
   256   1      6.6450785645006709      5.6114204641476642      3.9900188107955348
   257   1       7.925772902522854      7.0049772213154702      5.7185640692961286
   258   1      7.7621156984063013      4.3073472892015712      5.7434211203323908
   259   1      6.7734673370597296      8.3191394157814127      3.9608078282512982
   260   1        4.23819549569839      8.2619233235710094      3.9487977791583155
   261   1      5.5100188820606251      9.5743388787725596      5.7340614654860289
   262   1      5.3956927259020571      6.9347959065099172      5.7133719350817618
   263   1      4.2232947103310758      10.817545442553287      3.9490356070652077
   264   1      1.6859423353483327      10.607627359905234      3.9453448183471007
   265   1      2.9713012397604071      9.4390271721947236      5.7370125647929378
   266   1      8.7227870279154889     0.43906469572420853      4.0339748136200209
   267   1      5.8661383435988084     0.30022762580617463      3.9870769521487426
   268   1      7.6459348182374267      1.6381614293767486      5.8150519293476641
   269   1      6.4540937506714657      2.8605858827507409      3.9517325251554234
   270   1      4.0162818788325145      2.5896235448232705      3.9819984936797295
   271   1      5.2582216751045792      4.2521418165502531      5.7230568126644634
   272   1      5.1212189440868396      1.6447251157722129      6.0249234659448438
   273   1      4.1633947405257032      5.5862596910506186      4.0322411905686923
   274   1      1.3701065146298907      5.7183483660811332      3.9991990958476125
   275   1      2.8195901268716614      6.9691165450917509      5.5743645498872025
   276   1      2.7141389682363282      4.2816697214303572      5.4527748023149014
   277   1      1.6292023023451765      8.1654676026638811      3.8149463548206453
   278   1     0.37588678325231112      11.659455936790375      5.7214056522066574
   279   1     0.50363647079508433      8.9090708131427316      5.8189436850997254
   280   1      5.0841886457592524     -1.2006098977649666      5.9646058224960088
   281   1      3.3159860993686334     0.26169657755843212      2.8623230265779775
   282   1      1.6145413528665877      2.1027909957326267      3.9867018332783064
   283   1      2.2082499163631799      1.9985282845126422      6.2965575941749004
   284   1       3.315911168617478     0.27067450109436941      5.1042866122971109
   285   1     0.31607099487751317      3.7906385489081824      2.6889553488073852
   286   1     0.30489365951174996      3.7928315302272395       5.288053052257446
   287   1    -0.37903890657422695      1.8267681765223198      6.3855767706575248
   288   1      23.398495270886134    0.051227392118575611      5.1654244276875723
