(written by ASE)

228 atoms
1 atom types

0.0       17.68089656944667  xlo xhi
0.0      21.912020116909503  ylo yhi
0.0      7.0723586277786685  zlo zhi

Atoms # atomic

     1   1      1.2182702943251891      11.066374547197578      1.9015775465445945
     2   1   -0.038644637117012298      7.9782849686981407   0.0012852879527486686
     3   1      13.942322288439103      9.9590532308677684      1.7445306869490489
     4   1      15.204277264276547      8.5919469780120803   -0.028195402638370236
     5   1      12.670771227060754      8.6924118997660056    -0.10821361610673301
     6   1      16.571983880438559      10.038686076353368      1.4214521869323353
     7   1      16.138946697141666      12.911181140751481      1.6976842497937874
     8   1   -0.059195279326656601      11.863969906340555    0.014921396473493246
     9   1      15.042345035317364      11.411673179774489    0.015963787465684498
    10   1     0.94277591765222835      13.525097728474679      1.7607906464969696
    11   1     0.64736240109302468      15.976224563415592       1.784200648200237
    12   1      17.216747643031709      14.461613699437443  -0.0020450966152607349
    13   1      8.6455436718764584      9.5376024630169329      1.7659431132054006
    14   1      11.462848506318858      9.9462554130587524      1.7614163859824863
    15   1      11.207653760322382      12.537091494984647      1.7698949019796486
    16   1      12.544354225729368      11.283586574426923   -0.045714469120289786
    17   1      10.030970889392888      11.089989457672909      0.1295030320756215
    18   1      13.673595204690898      12.638308108291707      1.7860493667020731
    19   1      13.322981589404682      15.357382043793084      1.8060017569350548
    20   1      14.725578505939394      14.128660156237061   0.0052773797868676739
    21   1      12.279863712435475      13.936237932185714   -0.028933230845254471
    22   1      15.808521794224649      15.550685507146907      1.7873694297513711
    23   1       15.65968694985914      18.221271390228804      1.7743246991731734
    24   1      16.934787539323505      16.923935894983515    0.019509536471925115
    25   1      14.453690034117507      16.759925934411349    0.033543533208401304
    26   1     0.47600985252014871       18.38156911116813      1.7650107819234699
    27   1      1.4029305921274655      20.262876636585595     0.57882141304015955
    28   1       16.98775285535395      19.308705600927016    -0.26214614069531983
    29   1      3.8296113510333041      8.7189203790979484      1.6587251763517741
    30   1      6.3376383642042109      8.7101798610536321      1.7382883350447729
    31   1      6.3204808333425344      11.269668488936272      1.7888004745208692
    32   1      7.7352292686788422       10.06142579513544    -0.34791223770320107
    33   1      5.0922681344367513       10.04304096348277   -0.020783113054782608
    34   1      8.6018231229776649      12.043432030755339      1.7847521965676034
    35   1      8.3841046277270515      14.488046683926697      1.7634509168669104
    36   1      9.7895618925463612      13.550544573801647  -0.0094690734667579254
    37   1      7.3166208781126967      12.883815323174529   -0.070597983026265354
    38   1      10.873720443797946      15.099137047785154      1.7429341979144555
    39   1      10.461124556547137      17.926828609586742      1.4205872229978831
    40   1      11.976933167674792      16.591305745033171   0.0087012159645694365
    41   1      9.4497339555601663      16.068162559449231    0.012352060918975772
    42   1      13.124319335720344      18.091733869243175      1.6638649443229414
    43   1      13.381514449231034      20.871196576141848      1.6570658360744872
    44   1       14.50225760090399      19.490623950567876    0.019058614291592505
    45   1      11.906385916744085       19.55617903968442    0.038944485760483885
    46   1      2.2528276588511815       9.922719691141376  -0.0011765572961906648
    47   1      3.7509470645379057      11.274681960030041      1.7283090414642741
    48   1      3.4179748725596104      13.966308661844263      1.7438323732492833
    49   1      4.8564771626941781      12.690297922848934     0.01754838408243984
    50   1      2.3442427806279773      12.474166357297086   0.0071457134460047346
    51   1      5.9347401250553817       14.05229529615028      1.7759513064438524
    52   1      5.5125838653274082        16.8699088012036      1.8126256780116992
    53   1      6.9621226360410065      15.539380606014536    0.017792424065794496
    54   1      4.4919008384205501      15.433519928119015    0.044637385060754126
    55   1      8.0615494794226628      16.946836830578825      1.7851432482899674
    56   1       8.088576125437692       19.33646010799896      1.5423353466673573
    57   1      9.6459446681301166      20.369261234297436    0.012795739007930355
    58   1      6.6827486739197317      18.077301953705813   0.0093627789047162902
    59   1      10.152740695738244      20.300195515880908      2.3930314083438442
    60   1      2.0194714889098075      15.121911580433421   -0.021334521289284928
    61   1      2.9905158691851588      16.726724156066489      1.7894709041023262
    62   1      3.1323882292887011      19.173001542259417      1.8294559654640477
    63   1      4.2297887591202272      18.119182533416371   -0.087379265823154736
    64   1      1.6398648102271027      17.909965587349561    -0.34976059938671611
    65   1      5.5770417074722847      19.562664131471607       1.804266016098848
    66   1       4.465325021195679       20.86383627697985     -0.1092816656949027
    67   1      1.2593823007646836      8.6391171777618379      1.9110575234030798
    68   1      10.103183363067938      8.6598447085778876     0.13196885751742338
    69   1      17.756278365027697      5.4602886797171708   -0.017195252766876595
    70   1      16.624993987241449      7.2499828808761535      2.1134482319387802
    71   1      17.361316335629741     0.09325429447513009    -0.23916028408672493
    72   1       17.46875145552913      2.6451800314620844    0.040548158098876901
    73   1      14.844023795259782      2.8150657465107352     0.02846862928831043
    74   1      16.304747337053744      4.2693561548653962      1.5557869658688617
    75   1      16.188924003229079      1.4834945687388177      1.8133519029556939
    76   1      15.365897853151974      6.1057379988649751   -0.010450477179963894
    77   1      12.706705783630133      6.1314484239903084   -0.011207201460099302
    78   1       14.05079030111936       7.339174962883547      1.7891079196200066
    79   1      13.896951412977355        4.67328102226673      1.6156181117927824
    80   1      2.4412781111433226        7.39107215003731   0.0054722569055386094
    81   1      14.909538627324734     0.22475850210716847     0.12804499947382375
    82   1      12.730523748171079      1.1860123529336823  0.00087317283699919052
    83   1      13.635025037202924      1.8213466424045459      2.0990647620407237
    84   1      16.398953724752122     -1.1777042725344316      1.7477624511857259
    85   1      12.417061758031323      3.5083479902537138   0.0072039126030373239
    86   1      9.9600767893384763      3.8694130508036304   -0.031335806734135677
    87   1      11.350898098360121      4.8818411449946657      1.7868853230015505
    88   1      11.210014131589242      2.3498758204943995      2.0214049745706122
    89   1      10.121569463399897      6.2952645039172719     0.17639972327163247
    90   1      7.7938291464537581      7.2443462163033825      0.3383411114107332
    91   1      8.6387323695138303      5.1411157815636743      1.7609310622860568
    92   1       11.19567858933506    0.029382591094134755      1.2828440663968341
    93   1      9.8732430270195639      1.5278668393624164    0.012720629219399487
    94   1      7.2450793341240853      1.5869906386373747    0.034463843710660691
    95   1      8.6836386954626992      2.6673407363284127      1.8207297107835787
    96   1      8.4952182126527571    0.089047272772716707       1.537220071893741
    97   1      7.4650037010016561      4.2308344628009147    -0.21532423368444942
    98   1      5.0667469041724562      4.6404943066889004    -0.16687346601501998
    99   1      6.2817839189915503      5.8079869200923895      1.7562159542547406
   100   1      6.2951421573165032      3.2328823916429883      1.7858492871930052
   101   1      5.1618860124848416      7.3106676624923352    0.016426330013072341
   102   1      11.589047907109535      7.4566864830154174      1.7778083638649655
   103   1         3.8452476478938      6.1282127800526061       1.751384212936788
   104   1      6.9280655374490978      -1.098167830916158  -0.0083007277659832204
   105   1      5.9752411657599431     0.14991679833446811      1.8811350764419572
   106   1      4.7944420284925302      1.7618202986320226     0.36214396957686762
   107   1      2.3730063311582184      2.3662235207042523     0.23245500590191745
   108   1      3.8225682663294505      3.6629241367704042      1.7588870539529509
   109   1      3.3306905421339876     0.11425616656890374      1.7759069907873373
   110   1       2.522416336601967      4.9259599074453044   0.0082877367128129549
   111   1      1.2535465690218026      6.2644511239454239      1.9261129655510392
   112   1      1.1095055754912675       3.797079108257309       1.733283333910052
   113   1      2.3374944451613211    0.068807428960457495    -0.48790237929145447
   114   1     0.93131358068643966     0.84850826115445066      1.7673223840615881
   115   1      1.1908807136517399      11.089951616408715      5.1750368215621476
   116   1     -0.1947119693854954      9.5370920588997379      3.5386088431080776
   117   1      13.932858829458555      10.041675311176851      5.3254810390079061
   118   1      15.178127128475941      8.7091438780531067      3.5661031728565029
   119   1      12.670035966533515      8.7178939549621948      3.6457884835919656
   120   1      16.575930739694069      10.060806340588652      5.6524386905124571
   121   1      16.157272719782657      12.882840395170476      5.3762331627924089
   122   1    -0.23890830326016865      12.043251256005338       3.520822675308215
   123   1      15.161048388205673      11.268247913390413      3.5159823774289944
   124   1     0.94938780902734221      13.550543055655055      5.3147093820681146
   125   1     0.60810392521892598      16.067829491109872      5.2953798649705304
   126   1       17.22510506065035      14.488039209138858      3.5420028364665179
   127   1      8.8017310861161118      7.9789680698014358      5.3029038135351243
   128   1       11.09320606089195      9.9216490998298958      5.3058866600189001
   129   1      11.184514705727903      12.473128858528929      5.2982083326236751
   130   1      12.591512606723116      11.273478467956837      3.5768579977801838
   131   1      10.058900267474192      11.065994759491383       3.403816245776889
   132   1      13.697278147055362      12.688557063601827      5.2879230216711539
   133   1      13.333701324747329      15.430447432161644      5.2605133280530758
   134   1      14.775793197681139      14.049526517543489      3.5290054611147763
   135   1      12.258680405947677      13.964184653915844      3.5621197219577692
   136   1      15.802846026393105      15.537388244137111       5.287141271286151
   137   1       15.52162085756302      18.073894869074884      5.2939909322742968
   138   1      16.902221181673536      16.947606189450713      3.5205373480659015
   139   1      14.353508281532012      16.868360374281153      3.4913650238618801
   140   1     0.80841517500136839      20.385390618172597      5.2861509156719642
   141   1      1.3051129585065133      20.307034303433088      2.9063099598431612
   142   1      16.926510742817825      19.340099115719248      3.7637960645154673
   143   1       3.830486236815402      8.6937337002980719      5.4124145721077062
   144   1       6.363743331070566      8.5929018745281383      5.3323492931483472
   145   1      6.2017895276466053      11.413086135520674      5.2889611635747658
   146   1      7.7313479506257554      10.039755993895337      3.8830497394555499
   147   1      5.1020055194884577      9.9605103403114477      3.5599977175270001
   148   1      8.7805713494903603       11.86499354850327      5.2898863623264551
   149   1      8.3758633165351988       14.46311882743988      5.3077887149503891
   150   1       9.782993175367281      13.524843493997608      3.5448371399956349
   151   1      7.2979675916998277       12.91299554922141      3.6071539332979317
   152   1      10.858812029532412      15.121055273804108      5.3271555412156619
   153   1      10.473824561541189      17.915809476524856      5.6634568615859342
   154   1      11.832110433702066       16.72395689457252      3.5220531807729478
   155   1      9.4876473348263684      15.975814324876945      3.5207133707604972
   156   1      13.071551354330747      18.116235366798751      5.3950283685504994
   157   1      13.307022552801335      20.863759152335263      5.4170227723530147
   158   1      14.416822345020901      19.562118113687934       3.499812583931508
   159   1      11.973994729627801      19.169401915927022      3.4827817277437778
   160   1      2.6225534486064372      9.9466392973220028      3.5432435748683289
   161   1      3.7039862192813029      11.285095142185876      5.3504247343277944
   162   1      3.4392019118178871      13.937843082392444      5.3338488956849606
   163   1      4.8331076911771396      12.640059447006275      3.5187768664171708
   164   1      2.3671682970272916      12.538070764690714      3.5352762290943955
   165   1      5.8848101634709016      14.130097843124908      5.3005754641324216
   166   1      5.6129402679017284      16.762413554662885      5.2727947505817108
   167   1      6.9679419587839773      15.552489008773968      3.5190550400500764
   168   1      4.4827582229595411       15.35907890132793      3.4998544863523895
   169   1      8.0955042380995899      16.927149299113417      5.2876896898728809
   170   1      8.1330026731904788      19.318626806884932      5.5477614037127623
   171   1      9.3156605671307844      18.380291012500411       3.541801544434048
   172   1      6.8169543985147643      18.222003199439264       3.529197551168036
   173   1      10.238157766652606      20.264995998749878      4.7208929932779613
   174   1      2.0319615509602391      15.101010793722798      3.5632557265544551
   175   1      3.1354540873391339      16.594072113874059      5.2940506521566784
   176   1      3.0659505210712612      19.560691463258561      5.2645236592233466
   177   1       4.282527157512324      18.092544248399765      3.6419804578191943
   178   1      1.6040713697756614      17.941827702731441      3.9049252694438974
   179   1      5.6555998901222457       19.49312595282559      5.2844616625964207
   180   1      4.5445716376393959      20.875817024354809       3.643996614982409
   181   1      1.2629388329799516      8.6598103307165761      5.1727290034557756
   182   1      10.099722027140949      8.6386615849275508      3.3928801496406269
   183   1      17.479613960478016      5.1416922721248488      3.5423965991282227
   184   1      16.634371129088567      7.2435723884059824      4.9657751148236722
   185   1      17.330846427350593     0.09236640353705905      3.7601394350197115
   186   1      17.523564631879122      2.6683783726286538      3.4824429491048017
   187   1      15.134861384391245      3.2321702855213337      3.5177023342937463
   188   1      16.305459619912099      4.2307408115028853      5.5182556513456698
   189   1      16.084345731140974      1.5866159072513304      5.2689149815594254
   190   1      15.122214382242584       5.807227748882223      3.5475130713065499
   191   1      12.685655040166196       6.127194831732222      3.5523973378691718
   192   1      14.002190327922929      7.3094270792156939      5.2877050993544712
   193   1      13.906863219827517      4.6393083603428273      5.4705756011951845
   194   1       2.748241937416493      7.4572114416178676      3.5264101218776149
   195   1      14.815055067602753      0.1459853400734677      3.4185258406423742
   196   1      12.170754982071658     0.10915161192746026      3.5264607061400799
   197   1      13.634418759685778      1.7581672399499275      4.9396045159479192
   198   1      15.768136735628405     -1.0957443355680019      5.3144766603845079
   199   1      12.662956344561453      3.6617872536755853      3.5445127050696663
   200   1      9.9500181432921746      3.7963233705566295      3.5698989929641853
   201   1      11.362769155509964       4.924982451347196      5.2948275870276253
   202   1      11.213602007040613      2.3635980806993557      5.0689057110550717
   203   1       10.09373561865983      6.2639140328362197      3.3770398116696394
   204   1      7.7844788070659767      7.2503248083650451      3.1906293437358331
   205   1      8.9161146321450495      5.4609775949254251      5.3208422899909493
   206   1       11.17672782999896    0.065416163028396979      5.7917157985370888
   207   1      9.7712838084649842     0.84532805496016405      3.5348153952199901
   208   1      7.3484903733291462      1.4826483463714359      3.4892309525643586
   209   1      8.6281947746282111      2.6449039838754764      5.2618944727764809
   210   1      8.5220505945008327     0.09277829929921988      5.5447040017622724
   211   1      7.4646924026453405       4.269968840811452      3.7478036421524203
   212   1       5.056947530599043      4.6744059908116613      3.6877924746448509
   213   1      6.5257279856086639      6.1067028957557667      5.3142726245531344
   214   1      6.0043283359230166      2.8154681784019435       5.274421327360125
   215   1      5.2102337380341668      7.3402859764581549      3.5148228860423569
   216   1      11.281171504718813      7.3900870525530458       5.298381322825553
   217   1      3.8668059118524569      6.1326485553095704      5.3149857054172447
   218   1      7.5555396135269044     -1.1720647652050753      3.5478378223472511
   219   1      6.0707071894615128     0.22468408186950137      5.1783318872193611
   220   1      4.7949068083735824      1.8225348684088698      3.2039429372370973
   221   1       2.369523625276424      2.3523760710240467      3.2829164729567828
   222   1      3.5777242263094466      3.5096042056597598      5.2961211627228542
   223   1      3.8916066365116131      1.1869555340748137      5.3018638498947208
   224   1      2.5106931064599469      4.8829744508412958      3.5168401057613372
   225   1      1.2812137603152922      6.2949904608428255      5.1279782672465384
   226   1      1.1200979312618304      3.8682777380355593      5.3344060067638237
   227   1      2.3584451401540312    0.031758823171013119      4.0166038835636746
   228   1      1.0302851987493247      1.5251792271187925      5.2888403027008124
