LAMMPS data file via write_data, version 15 May 2015, timestep = 599

1400 atoms
5 atom types

0.0000000000000000e+00 1.8074999999999999e+01 xlo xhi
-1.2670368130214213e+02 1.2670368130214213e+02 ylo yhi
0.0000000000000000e+00 3.6150000000000002e+00 zlo zhi

Atoms # atomic

1 1 1.6596114088314786e+00 -1.2555072666517894e+02 1.8075083459633383e+00 0 0 0
8 1 1.7678165358942258e-01 -1.2495424196415694e+02 8.5457312719583456e-06 0 0 0
10 1 1.2758623107280471e+00 -1.2320632023626018e+02 1.8075081690276997e+00 0 0 0
61 1 4.2104777897098300e+00 -1.2544445392723691e+02 1.8075085377287987e+00 0 0 0
62 1 3.8602451151410970e+00 -1.2293300589969110e+02 1.8075082315566098e+00 0 0 0
64 1 2.7593894369067185e+00 -1.2424252911620796e+02 8.4950534242622666e-06 0 0 0
34 1 6.7675406827416937e+00 -1.2539194734249219e+02 1.8075086436895182e+00 0 0 0
40 1 7.8425675269417647e+00 -1.2389777350862639e+02 8.4440594880774711e-06 0 0 0
63 1 5.3270984088654494e+00 -1.2413327283223893e+02 8.5216439740243288e-06 0 0 0
16 1 1.1796889491123991e+01 -1.2424252936745296e+02 1.8075084655883225e+00 0 0 0
17 1 1.3247977669730739e+01 -1.2544445399707242e+02 8.5337326232171051e-06 0 0 0
18 1 1.0697111541683837e+01 -1.2555072684042197e+02 8.4281564634025585e-06 0 0 0
22 1 1.2897745190205697e+01 -1.2293300589361519e+02 8.2305314079711422e-06 0 0 0
37 1 9.2142815882534688e+00 -1.2495424185944185e+02 1.8075085734052816e+00 0 0 0
39 1 1.0313362203798819e+01 -1.2320631998246824e+02 8.2302364057262878e-06 0 0 0
7 1 1.6880067497190932e+01 -1.2389777357004411e+02 1.8075083498305935e+00 0 0 0
9 1 1.5805040674484323e+01 -1.2539194742031010e+02 8.5661387569935243e-06 0 0 0
19 1 1.4364598427922997e+01 -1.2413327285652512e+02 1.8075084463004685e+00 0 0 0
11 1 9.2934032719535864e-01 -1.2076129022258826e+02 1.8075079598517318e+00 0 0 0
92 1 2.3866092303020694e+00 -1.2179924158874506e+02 8.1385091661445585e-06 0 0 0
93 1 3.4870413537926099e+00 -1.2042624533696097e+02 1.8075079729238401e+00 0 0 0
96 1 2.0280394321277613e+00 -1.1932160178002039e+02 7.8452873109036148e-06 0 0 0
38 1 8.8827771252030310e+00 -1.2232641764347524e+02 1.8075082520448429e+00 0 0 0
65 1 6.4019010673362056e+00 -1.2275234892888169e+02 1.8075083308829842e+00 0 0 0
66 1 6.0258129472563340e+00 -1.2016662433608798e+02 1.8075080206128888e+00 0 0 0
67 1 7.4664409810280574e+00 -1.2127893563562468e+02 8.1557664959319709e-06 0 0 0
68 1 4.9478320919842380e+00 -1.2157693872867428e+02 8.1946331782489779e-06 0 0 0
69 1 8.5323137330039049e+00 -1.1976531868956080e+02 1.8075079596439718e+00 0 0 0
41 1 1.1424109186393091e+01 -1.2179924149113378e+02 1.8075081434800191e+00 0 0 0
42 1 1.1065539488500656e+01 -1.1932160181240337e+02 1.8075078651126488e+00 0 0 0
43 1 1.2524541353810040e+01 -1.2042624535700648e+02 7.9646313912995481e-06 0 0 0
44 1 9.9668404084087747e+00 -1.2076129034804814e+02 8.0166226177347255e-06 0 0 0
12 1 1.7920277025172201e+01 -1.2232641764570535e+02 8.1977450725467804e-06 0 0 0
20 1 1.3985332094553380e+01 -1.2157693878430858e+02 1.8075081334153493e+00 0 0 0
21 1 1.5439401075495974e+01 -1.2275234900056581e+02 8.2663727485332572e-06 0 0 0
23 1 1.6503941007184373e+01 -1.2127893568550087e+02 1.8075080659314415e+00 0 0 0
25 1 1.7569813748374571e+01 -1.1976531872543231e+02 7.8881840481770382e-06 0 0 0
26 1 1.5063312945292953e+01 -1.2016662434329436e+02 7.9500373182384010e-06 0 0 0
27 1 5.7799106773956399e-01 -1.1826755793129600e+02 1.8075076917992261e+00 0 0 0
28 1 2.2171381958139263e-01 -1.1575319411318436e+02 1.8075073848640304e+00 0 0 0
29 1 1.6690813501870574e+00 -1.1682044489856591e+02 7.5394144936069551e-06 0 0 0
94 1 3.1217435144398631e+00 -1.1791230282184105e+02 1.8075076916233812e+00 0 0 0
100 1 4.2090407119567299e+00 -1.1649551662352509e+02 7.5512514690068144e-06 0 0 0
125 1 2.7586166973682933e+00 -1.1539232048376282e+02 1.8075073779243476e+00 0 0 0
70 1 8.1755365717900084e+00 -1.1722362908178100e+02 1.8075076587863270e+00 0 0 0
72 1 7.0993256009707695e+00 -1.1870500649324136e+02 7.8530894231931825e-06 0 0 0
95 1 4.5757705854931405e+00 -1.1903277773037985e+02 7.8720764897788342e-06 0 0 0
97 1 5.6571265362984953e+00 -1.1760656840406955e+02 1.8075077088368492e+00 0 0 0
99 1 6.7358198553844089e+00 -1.1615239800905303e+02 7.5336033273920577e-06 0 0 0
46 1 1.3246540723014334e+01 -1.1649551659262545e+02 1.8075075171031942e+00 0 0 0
48 1 1.2159243548300823e+01 -1.1791230281346770e+02 7.6899232346328006e-06 0 0 0
71 1 9.6154910756577845e+00 -1.1826755788993003e+02 7.7563300937555368e-06 0 0 0
73 1 1.0706581368619219e+01 -1.1682044489521726e+02 1.8075075773459792e+00 0 0 0
75 1 1.1796116718170731e+01 -1.1539232046949009e+02 7.3891261331837654e-06 0 0 0
76 1 9.2592138524393146e+00 -1.1575319415262975e+02 7.4611979457017696e-06 0 0 0
24 1 1.6136825573710837e+01 -1.1870500647538411e+02 1.8075077649853497e+00 0 0 0
30 1 1.7213036537137913e+01 -1.1722362904270000e+02 7.5752415611418655e-06 0 0 0
45 1 1.3613270607306555e+01 -1.1903277772064941e+02 1.8075078209074242e+00 0 0 0
47 1 1.4694626542564157e+01 -1.1760656838029513e+02 7.6404261148965702e-06 0 0 0
49 1 1.5773319848016106e+01 -1.1615239795913209e+02 1.8075074473874910e+00 0 0 0
31 1 1.3092667950252657e+00 -1.1430532953104218e+02 7.2125824788216164e-06 0 0 0
55 1 9.4873915961857858e-01 -1.1178276013231616e+02 6.8666386785487532e-06 0 0 0
126 1 2.3964146000882551e+00 -1.1286799936111056e+02 1.8075070403242730e+00 0 0 0
127 1 3.8448021867577342e+00 -1.1396198311427244e+02 7.2192889297717500e-06 0 0 0
98 1 5.2919593484103853e+00 -1.1506058061297053e+02 1.8075073835114921e+00 0 0 0
101 1 7.8162985821844222e+00 -1.1468827583520273e+02 1.8075073384729765e+00 0 0 0
102 1 7.4558873753125203e+00 -1.1215538706274246e+02 1.8075069916056610e+00 0 0 0
103 1 8.9003063051040954e+00 -1.1323015306047398e+02 7.1333887583513444e-06 0 0 0
104 1 6.3734293537770528e+00 -1.1361057362241984e+02 7.1968929624688371e-06 0 0 0
128 1 4.9285286185336412e+00 -1.1252212928741780e+02 1.8075070361244574e+00 0 0 0
74 1 1.0346766823987883e+01 -1.1430532954772484e+02 1.8075072641108554e+00 0 0 0
77 1 1.2882302203567020e+01 -1.1396198306223775e+02 1.8075071935400022e+00 0 0 0
80 1 1.1433914622196211e+01 -1.1286799935018291e+02 7.0589137806109647e-06 0 0 0
105 1 9.9862391728702828e+00 -1.1178276017054857e+02 1.8075069227108025e+00 0 0 0
50 1 1.5410929348607146e+01 -1.1361057353736770e+02 1.8075071110136407e+00 0 0 0
51 1 1.6853798568270040e+01 -1.1468827578557550e+02 7.2473407137785273e-06 0 0 0
52 1 1.4329459345655039e+01 -1.1506058054180021e+02 7.3190105491782731e-06 0 0 0
53 1 1.7937806292474196e+01 -1.1323015301582355e+02 1.8075070512286253e+00 0 0 0
56 1 1.6493387373546330e+01 -1.1215538697634116e+02 6.9021964006488190e-06 0 0 0
79 1 1.3966028630979340e+01 -1.1252212920246383e+02 6.9801897080168374e-06 0 0 0
57 1 1.6729395947470396e+00 -1.0781243498623051e+02 1.8075062962759341e+00 0 0 0
58 1 5.8775511634895550e-01 -1.0925635276433464e+02 6.5023067237213183e-06 0 0 0
131 1 3.4818705036679680e+00 -1.1143023209233041e+02 6.8587048693835584e-06 0 0 0
150 1 2.0345983425444425e+00 -1.1034098896645919e+02 1.8075066783681433e+00 0 0 0
151 1 3.1196161011803234e+00 -1.0889928080199884e+02 6.4780289421584314e-06 0 0 0
108 1 8.5400824056011828e+00 -1.1070323351489847e+02 6.7767821576580900e-06 0 0 0
129 1 4.5659955499721319e+00 -1.0998762278450431e+02 1.8075066618697371e+00 0 0 0
130 1 6.0114590998942248e+00 -1.1107426834959696e+02 6.8358986013983269e-06 0 0 0
132 1 7.0948948036044541e+00 -1.0962364734691522e+02 1.8075066168178140e+00 0 0 0
134 1 8.1791998432172051e+00 -1.0817450154695015e+02 6.3891450277075990e-06 0 0 0
135 1 5.6496807730840226e+00 -1.0854080901594415e+02 6.4441099860701456e-06 0 0 0
78 1 1.2519370518274133e+01 -1.1143023204228481e+02 1.8075068416152900e+00 0 0 0
106 1 9.6252551235216295e+00 -1.0925635283375175e+02 1.8075065484073782e+00 0 0 0
107 1 1.1072098355811240e+01 -1.1034098897725806e+02 6.6986220592646362e-06 0 0 0
109 1 1.2157116109123351e+01 -1.0889928077358429e+02 1.8075064668394727e+00 0 0 0
112 1 1.0710439590868333e+01 -1.0781243502640569e+02 6.3138123067574270e-06 0 0 0
54 1 1.7577582398403372e+01 -1.1070323343240621e+02 1.8075067019495157e+00 0 0 0
81 1 1.5048959106674499e+01 -1.1107426825009054e+02 1.8075067613458464e+00 0 0 0
82 1 1.4687180783751121e+01 -1.0854080891532220e+02 1.8075063878584821e+00 0 0 0
83 1 1.6132394807076174e+01 -1.0962364724201019e+02 6.5431734408427644e-06 0 0 0
84 1 1.3603495559792243e+01 -1.0998762270322351e+02 6.6153292026527311e-06 0 0 0
85 1 1.7216699849646758e+01 -1.0817450143939925e+02 1.8075063310527792e+00 0 0 0
87 1 2.2650989428680457e-01 -1.0672798711975447e+02 6.1195712093287113e-06 0 0 0
89 1 1.3113459292514549e+00 -1.0528302784321184e+02 1.8075059048892796e+00 0 0 0
152 1 4.2039302506398020e+00 -1.0745514701647079e+02 1.8075062616674946e+00 0 0 0
153 1 3.8421101489950753e+00 -1.0492370451586328e+02 1.8075058608511017e+00 0 0 0
155 1 2.7577084393727045e+00 -1.0636867225070515e+02 6.0801366896789943e-06 0 0 0
133 1 6.7336146162407688e+00 -1.0709250631619366e+02 1.8075062191584899e+00 0 0 0
137 1 8.9026216489091663e+00 -1.0419862382045024e+02 1.8075057463382742e+00 0 0 0
139 1 7.8179867884953458e+00 -1.0564490401444115e+02 5.9852633982337977e-06 0 0 0
154 1 5.2880023953211728e+00 -1.0600882362202940e+02 6.0402840178497286e-06 0 0 0
156 1 6.3721939209910063e+00 -1.0456169371524730e+02 1.8075058105466852e+00 0 0 0
110 1 1.1795208429836240e+01 -1.0636867225994790e+02 1.8075060708172461e+00 0 0 0
111 1 1.3241430255912507e+01 -1.0745514695957561e+02 6.2300717287300245e-06 0 0 0
116 1 1.2879610152154727e+01 -1.0492370449600355e+02 5.8304536034725629e-06 0 0 0
136 1 9.2640098799069381e+00 -1.0672798721740149e+02 1.8075061551423803e+00 0 0 0
138 1 1.0348845917942535e+01 -1.0528302791652720e+02 5.9108075443070618e-06 0 0 0
86 1 1.6855486801743563e+01 -1.0564490389545875e+02 1.8075059462720409e+00 0 0 0
88 1 1.5771114627303017e+01 -1.0709250620403169e+02 6.1653678491424557e-06 0 0 0
91 1 1.7940121662515988e+01 -1.0419862370775866e+02 5.7279693446155022e-06 0 0 0
113 1 1.4325502401808777e+01 -1.0600882354428427e+02 1.8075059976841208e+00 0 0 0
115 1 1.5409693933868013e+01 -1.0456169361590320e+02 5.7706648131095051e-06 0 0 0
90 1 9.4977958762738901e-01 -1.0275315826125215e+02 1.8075055074292417e+00 0 0 0
167 1 2.3959774568660621e+00 -1.0383820339756662e+02 5.6827989727281647e-06 0 0 0
168 1 3.4804194735268661e+00 -1.0239278364760344e+02 1.8075054570069848e+00 0 0 0
171 1 2.0343374866126931e+00 -1.0130778789824717e+02 5.2797172522822677e-06 0 0 0
157 1 6.0107060343944205e+00 -1.0203106481874475e+02 1.8075054004229452e+00 0 0 0
158 1 7.4566072186052317e+00 -1.0311489012089930e+02 5.5751754821642407e-06 0 0 0
159 1 4.9263798710105462e+00 -1.0347760290037291e+02 5.6303144075897649e-06 0 0 0
160 1 8.5411580788177890e+00 -1.0166875239656952e+02 1.8075053314840535e+00 0 0 0
163 1 7.0951443602814059e+00 -1.0058467591264291e+02 5.1542138699289808e-06 0 0 0
170 1 4.5647900288310872e+00 -1.0094677913997458e+02 5.2218450399266203e-06 0 0 0
140 1 1.1433477458090550e+01 -1.0383820344228660e+02 1.8075056698247689e+00 0 0 0
141 1 1.1071837473942534e+01 -1.0130778798028578e+02 1.8075052591758749e+00 0 0 0
142 1 1.2517919478910292e+01 -1.0239278366899754e+02 5.4307739021375312e-06 0 0 0
143 1 9.9872795761673014e+00 -1.0275315836309241e+02 5.5019221090191195e-06 0 0 0
114 1 1.3963879885582379e+01 -1.0347760285145469e+02 1.8075055994208813e+00 0 0 0
117 1 1.6494107238572578e+01 -1.0311489000227505e+02 1.8075055538683000e+00 0 0 0
118 1 1.6132644369769334e+01 -1.0058467581741144e+02 1.8075051510515567e+00 0 0 0
119 1 1.7578658099293438e+01 -1.0166875227624597e+02 5.3291153436774152e-06 0 0 0
120 1 1.5048206052444851e+01 -1.0203106474268600e+02 5.3753522859523173e-06 0 0 0
144 1 1.3602290028321690e+01 -1.0094677913051537e+02 1.8075051990989821e+00 0 0 0
14 1 2.7572093897710239e+00 -9.7331597157634889e+01 1.8075046103891905e+00 0 0 0
59 1 4.2032180224792519e+00 -9.8416161217673306e+01 4.7955126132315229e-06 0 0 0
121 1 5.8822505849930673e-01 -1.0022304045122458e+02 1.8075051024282094e+00 0 0 0
122 1 2.2667397175642759e-01 -9.7692790512970518e+01 1.8075046771961893e+00 0 0 0
123 1 1.6727426232541014e+00 -9.8777390622674304e+01 4.8611299057199631e-06 0 0 0
169 1 3.1187973113060306e+00 -9.9862124843611639e+01 1.8075050436844338e+00 0 0 0
161 1 8.1796542426721324e+00 -9.9138622031431467e+01 1.8075049066448656e+00 0 0 0
172 1 5.6491863792041670e+00 -9.9500538969628920e+01 1.8075049759678241e+00 0 0 0
173 1 5.2876499419456167e+00 -9.6970070390690012e+01 1.8075045355324857e+00 0 0 0
174 1 6.7336385034610862e+00 -9.8054364999245934e+01 4.7216587226728279e-06 0 0 0
202 1 7.8181277847417272e+00 -9.6608359726633040e+01 1.8075044601684902e+00 0 0 0
145 1 1.3240718019179459e+01 -9.8416161247248951e+01 1.8075047802099899e+00 0 0 0
147 1 1.2156297299526695e+01 -9.9862124900906110e+01 5.0196188561280053e-06 0 0 0
162 1 9.6257250414115489e+00 -1.0022304056641185e+02 5.0841460241812797e-06 0 0 0
164 1 1.0710242611712362e+01 -9.8777390719103209e+01 1.8075048369514821e+00 0 0 0
165 1 1.1794709379954403e+01 -9.7331597236448587e+01 4.5860465336389211e-06 0 0 0
166 1 9.2641739591614378e+00 -9.7692790615591420e+01 4.6500622414846760e-06 0 0 0
124 1 1.7217154251261622e+01 -9.9138621926235118e+01 4.9200771381485708e-06 0 0 0
146 1 1.4686686376767540e+01 -9.9500538934889846e+01 4.9656763327909914e-06 0 0 0
148 1 1.5771138510958858e+01 -9.8054364941463461e+01 1.8075047280591774e+00 0 0 0
149 1 1.4325149945378996e+01 -9.6970070396133536e+01 4.5332856446478331e-06 0 0 0
179 1 1.6855627796784841e+01 -9.6608359652981932e+01 4.4802579202141146e-06 0 0 0
177 1 1.3111695795077771e+00 -9.6246997798323633e+01 4.4204715217155410e-06 0 0 0
182 1 9.4960566231127674e-01 -9.3716605277581209e+01 3.9383106655854760e-06 0 0 0
227 1 2.3956382649364660e+00 -9.4801134788590730e+01 1.8075041452901988e+00 0 0 0
228 1 3.8416547459624639e+00 -9.5885649415838174e+01 4.3430825469314982e-06 0 0 0
232 1 3.4800951788273653e+00 -9.3355193007801944e+01 3.8484846771602577e-06 0 0 0
203 1 7.4565881366104687e+00 -9.4078030815597600e+01 1.8075039753914153e+00 0 0 0
204 1 8.9026229137176411e+00 -9.5162470975278140e+01 4.1879588619231356e-06 0 0 0
205 1 6.3721094245075998e+00 -9.5524008000875952e+01 4.2628826748547510e-06 0 0 0
229 1 4.9261042989108059e+00 -9.4439633402057595e+01 1.8075040584526691e+00 0 0 0
231 1 6.0105677360188405e+00 -9.2993629341128269e+01 3.7574800360040683e-06 0 0 0
186 1 1.0348669560764137e+01 -9.6246997898720437e+01 1.8075043917811455e+00 0 0 0
187 1 1.2879154734193797e+01 -9.5885649477982298e+01 1.8075043300235651e+00 0 0 0
188 1 1.2517595162934672e+01 -9.3355193080211919e+01 1.8075038389352891e+00 0 0 0
190 1 1.1433138248958917e+01 -9.4801134876174942e+01 4.1203164395930969e-06 0 0 0
206 1 9.9871056600032002e+00 -9.3716605355294476e+01 1.8075039033584954e+00 0 0 0
178 1 1.5409609420885653e+01 -9.5524007985526836e+01 1.8075042772431402e+00 0 0 0
180 1 1.7940122921247283e+01 -9.5162470895635536e+01 1.8075042204613978e+00 0 0 0
183 1 1.6494088122971348e+01 -9.4078030786205048e+01 4.0066717952313979e-06 0 0 0
189 1 1.3963604280530157e+01 -9.4439633444240854e+01 4.0621578376587308e-06 0 0 0
191 1 1.5048067716838238e+01 -9.2993629364754426e+01 1.8075037814325208e+00 0 0 0
184 1 1.6725157707320930e+00 -8.9740292623633863e+01 1.8075030740974916e+00 0 0 0
185 1 5.8804629009346487e-01 -9.1186211840586921e+01 3.4073449084459639e-06 0 0 0
259 1 2.0340748977340097e+00 -9.2270705473623565e+01 1.8075036351656981e+00 0 0 0
260 1 3.1185378033260465e+00 -9.0824765350798174e+01 3.3099066523156750e-06 0 0 0
261 1 4.2030013677710967e+00 -8.9378805463525410e+01 1.8075029699358376e+00 0 0 0
209 1 8.5410702594596604e+00 -9.2632114755507615e+01 3.6756595584996887e-06 0 0 0
230 1 4.5645539046461661e+00 -9.1909214472786189e+01 1.8075035349799506e+00 0 0 0
233 1 7.0950411893863707e+00 -9.1547668347538718e+01 1.8075034430852204e+00 0 0 0
234 1 6.7334906133169676e+00 -8.9017288792686301e+01 1.8075028704328666e+00 0 0 0
235 1 8.1795168215481127e+00 -9.0101739264761591e+01 3.1167553662392322e-06 0 0 0
236 1 5.6490197614449489e+00 -9.0463240662729120e+01 3.2053215424099335e-06 0 0 0
207 1 9.6255462852603344e+00 -9.1186211886473529e+01 1.8075033620770069e+00 0 0 0
208 1 1.1071574888462367e+01 -9.2270705545882990e+01 3.6048793576881621e-06 0 0 0
210 1 1.2156037782866010e+01 -9.0824765419367949e+01 1.8075032939905313e+00 0 0 0
212 1 1.3240501344742540e+01 -8.9378805525394398e+01 2.9741855303022646e-06 0 0 0
213 1 1.0710015755302678e+01 -8.9740292674732913e+01 3.0383796150168507e-06 0 0 0
181 1 1.7578570251570653e+01 -9.2632114717385576e+01 1.8075037177294606e+00 0 0 0
192 1 1.4686519739831157e+01 -9.0463240712849313e+01 1.8075032346060120e+00 0 0 0
193 1 1.6132541175985587e+01 -9.1547668357989764e+01 3.4833794639865800e-06 0 0 0
194 1 1.3602053884635929e+01 -9.1909214529247748e+01 3.5431464326940443e-06 0 0 0
195 1 1.7217016817044470e+01 -9.0101739269616530e+01 1.8075031672972832e+00 0 0 0
198 1 1.5770990598630986e+01 -8.9017288841308968e+01 2.9133086818511345e-06 0 0 0
197 1 2.2648931132741829e-01 -8.8655817521636848e+01 2.8318688585216023e-06 0 0 0
199 1 1.3109581735751619e+00 -8.7209887921657909e+01 1.8075024836573941e+00 0 0 0
262 1 3.8414471670525367e+00 -8.6848402171489269e+01 1.8075023793010168e+00 0 0 0
264 1 2.7569812854128202e+00 -8.8294352701847075e+01 2.7312131485324187e-06 0 0 0
292 1 2.3954252191244936e+00 -8.5763947941989912e+01 2.1254382538415939e-06 0 0 0
238 1 8.9024330878108398e+00 -8.6125422211207677e+01 1.8075021816964523e+00 0 0 0
240 1 7.8179627016724584e+00 -8.7571353353638060e+01 2.5275787249867676e-06 0 0 0
263 1 5.2874681568327686e+00 -8.7932847346861962e+01 2.6250998428345440e-06 0 0 0
265 1 6.3719376611833214e+00 -8.6486900481205438e+01 1.8075022743484008e+00 0 0 0
268 1 4.9259146013152568e+00 -8.5402452327564106e+01 2.0220382288549388e-06 0 0 0
211 1 1.1794481270930996e+01 -8.8294352751170905e+01 1.8075027109061741e+00 0 0 0
217 1 1.2878947153819357e+01 -8.6848402227786494e+01 2.3801384831934058e-06 0 0 0
237 1 9.2639893081572584e+00 -8.8655817528560604e+01 1.8075027822802485e+00 0 0 0
239 1 1.0348458165709587e+01 -8.7209887938071049e+01 2.4449682514138260e-06 0 0 0
241 1 1.1432925205752078e+01 -8.5763947971840395e+01 1.8075021076191056e+00 0 0 0
196 1 1.6855462697175412e+01 -8.7571353398873384e+01 1.8075025775070337e+00 0 0 0
201 1 1.7939933091441667e+01 -8.6125422238594922e+01 2.2283889946628221e-06 0 0 0
214 1 1.4324968141935228e+01 -8.7932847413166158e+01 1.8075026490635868e+00 0 0 0
215 1 1.3963414590969725e+01 -8.5402452399280179e+01 1.8075020453517969e+00 0 0 0
216 1 1.5409437655522931e+01 -8.6486900554392960e+01 2.3144766134741701e-06 0 0 0
200 1 9.4940171164773057e-01 -8.4679487013948247e+01 1.8075018673793328e+00 0 0 0
222 1 5.8784630544604299e-01 -8.2149088302096942e+01 1.8075012445592815e+00 0 0 0
293 1 3.4798922843447557e+00 -8.4318002132058751e+01 1.8075017645063469e+00 0 0 0
294 1 3.1183375687126165e+00 -8.1787603395215555e+01 1.8075011419446962e+00 0 0 0
296 1 2.0338696572927120e+00 -8.3233546909888474e+01 1.5034887308473799e-06 0 0 0
266 1 6.0103836001179420e+00 -8.3956508019321262e+01 1.8075016631423775e+00 0 0 0
267 1 7.4564078484982357e+00 -8.5040962113866470e+01 1.9215546736006672e-06 0 0 0
269 1 8.5408775253915117e+00 -8.3595025903920373e+01 1.8075015718638552e+00 0 0 0
272 1 7.0948531833652257e+00 -8.2510568257741369e+01 1.3106258287542971e-06 0 0 0
295 1 4.5643603646178565e+00 -8.2872056498234187e+01 1.4069491980350790e-06 0 0 0
297 1 5.6488295276790348e+00 -8.1426113589088246e+01 1.8075010508304754e+00 0 0 0
242 1 1.1071369658067120e+01 -8.3233546918451168e+01 1.8075014996141558e+00 0 0 0
243 1 1.2517392272601331e+01 -8.4318002180255888e+01 1.7733833654887121e-06 0 0 0
244 1 9.9869017063872896e+00 -8.4679487004521818e+01 1.8393496108437546e-06 0 0 0
248 1 1.2155837581319975e+01 -8.1787603434131839e+01 1.1587648902633418e-06 0 0 0
271 1 9.6253463155765466e+00 -8.2149088270737778e+01 1.2278638377161144e-06 0 0 0
218 1 1.6493907845053165e+01 -8.5040962182686215e+01 1.8075019661869833e+00 0 0 0
219 1 1.6132353180376263e+01 -8.2510568334009221e+01 1.8075013452785083e+00 0 0 0
220 1 1.7578377518309093e+01 -8.3595025955979921e+01 1.6081567055792334e-06 0 0 0
221 1 1.5047883591636197e+01 -8.3956508105294404e+01 1.7019189009204183e-06 0 0 0
245 1 1.3601860364348845e+01 -8.2872056569154054e+01 1.8075014326973691e+00 0 0 0
247 1 1.4686329540754322e+01 -8.1426113668673437e+01 1.0844176729918331e-06 0 0 0
223 1 2.2629327817274342e-01 -7.9618690561327767e+01 1.8075006191743874e+00 0 0 0
224 1 1.6723155161519538e+00 -8.0703147720476721e+01 8.8187979319087617e-07 0 0 0
226 1 1.3107637142302953e+00 -7.8172749622896688e+01 2.5580675933056796e-07 0 0 0
300 1 4.2028070831747275e+00 -8.0341660019547945e+01 7.8592541363775581e-07 0 0 0
320 1 2.7567853444520156e+00 -7.9257205314113364e+01 1.8075005206355066e+00 0 0 0
322 1 3.8412556984166244e+00 -7.7811262965921216e+01 1.6028722615857305e-07 0 0 0
270 1 8.1793228897938679e+00 -8.1064629639522195e+01 1.8075009617622559e+00 0 0 0
298 1 5.2872777936752282e+00 -7.8895717913145660e+01 1.8075004333523255e+00 0 0 0
299 1 6.7332999654789694e+00 -7.9980172871382536e+01 6.9879270325756693e-07 0 0 0
301 1 7.8177708754773780e+00 -7.8534233100729679e+01 1.8075003485916885e+00 0 0 0
246 1 1.3240307105820555e+01 -8.0341660084660404e+01 1.8075008141148710e+00 0 0 0
273 1 1.0709815529998096e+01 -8.0703147721911634e+01 1.8075008878704828e+00 0 0 0
274 1 1.0348263740701508e+01 -7.8172749642163211e+01 1.8075002726822960e+00 0 0 0
275 1 1.1794285371737427e+01 -7.9257205357344745e+01 5.4482771805197672e-07 0 0 0
276 1 9.2637932857904897e+00 -7.9618690534510890e+01 6.1740501067220066e-07 0 0 0
277 1 1.2878755738826028e+01 -7.7811263030004014e+01 1.8075001929813523e+00 0 0 0
225 1 1.7216822887524344e+01 -8.1064629699181808e+01 9.8363376199728236e-07 0 0 0
249 1 1.5770799977347080e+01 -7.9980172941091354e+01 1.8075007253859199e+00 0 0 0
251 1 1.6855270878736274e+01 -7.8534233143024125e+01 3.5907274797963851e-07 0 0 0
252 1 1.4324777819470853e+01 -7.8895717981740205e+01 4.6100132111703829e-07 0 0 0
255 1 9.4921093368420717e-01 -7.5642352159800353e+01 3.6149996165219309e+00 0 0 -1
321 1 2.3952335154020008e+00 -7.6726807685763589e+01 1.8074998891363498e+00 0 0 0
326 1 3.4797033461962270e+00 -7.5280865954357921e+01 3.6149995227761913e+00 0 0 -1
338 1 2.0336806679581114e+00 -7.4196410626179613e+01 1.8074992434261379e+00 0 0 0
302 1 7.4562188472600459e+00 -7.6003836308596107e+01 1.8074997254159169e+00 0 0 0
303 1 8.9022413848521040e+00 -7.7088293117178438e+01 2.1752786238948829e-09 0 0 0
304 1 6.3717484162649027e+00 -7.7449776654861978e+01 7.8885371568304663e-08 0 0 0
308 1 8.5406884641575580e+00 -7.4557895815488635e+01 3.6149993738632307e+00 0 0 -1
323 1 4.9257259970842826e+00 -7.6365321396434837e+01 1.8074997994305388e+00 0 0 0
324 1 4.5641732478579762e+00 -7.3834924822986622e+01 1.8074991595245278e+00 0 0 0
325 1 6.0101960805587256e+00 -7.4919380157257507e+01 3.6149994413286732e+00 0 0 -1
278 1 1.2517203397158257e+01 -7.5280866026092582e+01 1.8074995688205531e+00 0 0 0
280 1 1.1432733560382655e+01 -7.6726807747681136e+01 3.6149999259631778e+00 0 0 -1
305 1 9.9867109655351811e+00 -7.5642352219186975e+01 1.8074996510801355e+00 0 0 0
307 1 1.1071180712983573e+01 -7.4196410722844320e+01 3.6149992991980788e+00 0 0 -1
250 1 1.5409248437364749e+01 -7.7449776700675557e+01 1.8075000978021443e+00 0 0 0
253 1 1.7939741372122700e+01 -7.7088293114807129e+01 1.8074999900911586e+00 0 0 0
254 1 1.7578188454791295e+01 -7.4557895762852297e+01 1.8074993473259300e+00 0 0 0
256 1 1.6493718857412990e+01 -7.6003836312311350e+01 3.6149997263313205e+00 0 0 -1
279 1 1.3963226038284247e+01 -7.6365321448343579e+01 3.6149998337899212e+00 0 0 -1
281 1 1.5047696111972767e+01 -7.4919380172382034e+01 1.8074994616402191e+00 0 0 0
284 1 1.3601673292623554e+01 -7.3834924868580458e+01 3.6149992011264596e+00 0 0 -1
257 1 1.6721266531520749e+00 -7.1666013911373838e+01 1.8074986042010051e+00 0 0 0
258 1 5.8765749224420583e-01 -7.3111954635358629e+01 3.6149989735327188e+00 0 0 -1
287 1 2.2610322504978836e-01 -7.0581557572177545e+01 3.6149983364984619e+00 0 0 -1
339 1 3.1181500178039836e+00 -7.2750469590423208e+01 3.6149988787230525e+00 0 0 -1
340 1 4.2026190097366358e+00 -7.1304528546839180e+01 1.8074985233081258e+00 0 0 0
343 1 2.7565954428734663e+00 -7.0220073045210469e+01 3.6149982479927574e+00 0 0 -1
327 1 7.0946656110620046e+00 -7.3473439152956487e+01 1.8074990903363963e+00 0 0 0
328 1 6.7331109489939207e+00 -7.0943042320816119e+01 1.8074984598304282e+00 0 0 0
329 1 8.1791343020161538e+00 -7.2027498176303865e+01 3.6149987439181617e+00 0 0 -1
330 1 5.6486424362354981e+00 -7.2388983725480372e+01 3.6149988053860942e+00 0 0 -1
306 1 9.6251575208350246e+00 -7.3111954747306314e+01 1.8074990238957445e+00 0 0 0
309 1 1.2155650065911505e+01 -7.2750469680986328e+01 1.8074989388625831e+00 0 0 0
310 1 1.1794095483437564e+01 -7.0220073168239892e+01 1.8074983214667344e+00 0 0 0
311 1 1.3240119053600903e+01 -7.1304528598492425e+01 3.6149985755003269e+00 0 0 -1
312 1 1.0709626693305619e+01 -7.1666014047352007e+01 3.6149986732029102e+00 0 0 -1
331 1 9.2636032458522930e+00 -7.0581557734799844e+01 1.8074984029174892e+00 0 0 0
282 1 1.4686142472183032e+01 -7.2388983720268612e+01 1.8074988272629755e+00 0 0 0
283 1 1.6132165626529194e+01 -7.3473439114962957e+01 3.6149990851362945e+00 0 0 -1
285 1 1.7216634300630048e+01 -7.2027498068996167e+01 1.8074987068233095e+00 0 0 0
288 1 1.5770610973404050e+01 -7.0943042245783857e+01 3.6149984516341407e+00 0 0 -1
289 1 1.3105715641026638e+00 -6.9135617086746365e+01 1.8074979805850191e+00 0 0 0
290 1 9.4901531201577993e-01 -6.6605220010616605e+01 1.8074974011659208e+00 0 0 0
341 1 3.8410632394835420e+00 -6.8774131933390606e+01 1.8074979076602697e+00 0 0 0
349 1 2.3950394039107854e+00 -6.7689675991085153e+01 3.6149976452730046e+00 0 0 -1
350 1 3.4795070628815132e+00 -6.6243735333240494e+01 1.8074973293337393e+00 0 0 0
332 1 8.9020474923775872e+00 -6.8051161252050989e+01 1.8074978054214264e+00 0 0 0
334 1 7.8175793014064023e+00 -6.9497101580639097e+01 3.6149981284072088e+00 0 0 -1
342 1 5.2870873347661149e+00 -6.9858587345622865e+01 3.6149981812131045e+00 0 0 -1
344 1 6.3715550119340634e+00 -6.8412646206756420e+01 1.8074978544627542e+00 0 0 0
346 1 7.4560233640218536e+00 -6.6966705745333343e+01 3.6149975426012193e+00 0 0 -1
347 1 4.9255309492039219e+00 -6.7328190839417971e+01 3.6149975865271484e+00 0 0 -1
316 1 1.2878563279802311e+01 -6.8774132008409353e+01 3.6149979728766417e+00 0 0 -1
333 1 1.0348071596366376e+01 -6.9135617268308181e+01 3.6149980669747981e+00 0 0 -1
335 1 1.1432539440810334e+01 -6.7689676148812396e+01 1.8074977364575850e+00 0 0 0
336 1 1.2517007088771381e+01 -6.6243735439239657e+01 3.6149974126241879e+00 0 0 -1
337 1 9.9865153330106846e+00 -6.6605220226371813e+01 3.6149974951799191e+00 0 0 -1
286 1 1.6855079301708120e+01 -6.9497101430819598e+01 1.8074980850001408e+00 0 0 0
291 1 1.7939547473193976e+01 -6.8051161045569216e+01 3.6149977333266747e+00 0 0 -1
313 1 1.4324587370400405e+01 -6.9858587335501468e+01 1.8074982081652149e+00 0 0 0
314 1 1.3963030978043092e+01 -6.7328190842721625e+01 1.8074976310791733e+00 0 0 0
315 1 1.5409055028981042e+01 -6.8412646114870881e+01 3.6149978505882547e+00 0 0 -1
317 1 1.6493523364913091e+01 -6.6966705569225653e+01 1.8074975051142397e+00 0 0 0
351 1 2.0334824584962328e+00 -6.5159279400004380e+01 3.6149970932714193e+00 0 0 -1
354 1 5.8745780888630661e-01 -6.4074823766105055e+01 1.8074968780740377e+00 0 0 0
356 1 1.6719252158119993e+00 -6.2628883438068478e+01 3.6149965974174165e+00 0 0 -1
396 1 3.1179496540577767e+00 -6.3713338681926430e+01 1.8074968107967455e+00 0 0 0
345 1 6.0099987048117489e+00 -6.5882250148849039e+01 1.8074972847462758e+00 0 0 0
348 1 8.5404909036178598e+00 -6.5520765010245697e+01 1.8074972489846246e+00 0 0 0
374 1 8.1789333659103178e+00 -6.2990368777896663e+01 1.8074967350980189e+00 0 0 0
376 1 7.0944660607762966e+00 -6.4436309718358586e+01 3.6149970044356738e+00 0 0 -1
397 1 4.5639741810954240e+00 -6.4797794313279780e+01 3.6149970406165708e+00 0 0 -1
399 1 5.6484415135433128e+00 -6.3351853739875715e+01 1.8074967685919976e+00 0 0 0
352 1 1.1070982469372446e+01 -6.5159279594138198e+01 1.8074971918363203e+00 0 0 0
363 1 1.2155449656369441e+01 -6.3713338824862937e+01 3.6149968949560063e+00 0 0 -1
375 1 9.6249578076735176e+00 -6.4074823999388556e+01 3.6149969645987574e+00 0 0 -1
377 1 1.0709425211293738e+01 -6.2628883650823475e+01 1.8074966868499980e+00 0 0 0
318 1 1.7577990900508471e+01 -6.5520764783229083e+01 3.6149971806267378e+00 0 0 -1
319 1 1.5047498717734223e+01 -6.5882250057141050e+01 3.6149972985816512e+00 0 0 -1
353 1 1.6131966062330633e+01 -6.4436309551205539e+01 1.8074969803095542e+00 0 0 0
357 1 1.7216433370118395e+01 -6.2990368567498066e+01 3.6149966815325669e+00 0 0 -1
360 1 1.3601474191054638e+01 -6.4797794343090274e+01 1.8074970964606361e+00 0 0 0
362 1 1.4685941512072379e+01 -6.3351853684748946e+01 3.6149967895347839e+00 0 0 -1
355 1 2.2590055115003013e-01 -6.1544427825437367e+01 1.8074964000649614e+00 0 0 0
358 1 1.3103676362759196e+00 -6.0098487234198821e+01 3.6149961339118475e+00 0 0 -1
402 1 4.2024169622338716e+00 -6.2267397759620124e+01 3.6149965442050433e+00 0 0 -1
428 1 2.7563921051550158e+00 -6.1182942458530277e+01 1.8074963335581016e+00 0 0 0
429 1 2.3948353196561181e+00 -5.8652546264648876e+01 1.8074958748175138e+00 0 0 0
430 1 3.8408595693645071e+00 -5.9737001758861410e+01 3.6149960777220249e+00 0 0 -1
400 1 5.2868842821793640e+00 -6.0821457346609634e+01 1.8074962875871763e+00 0 0 0
401 1 6.7329088313357133e+00 -6.1905913169144036e+01 3.6149965099531385e+00 0 0 -1
403 1 7.8173758935578244e+00 -6.0459972153625131e+01 1.8074962536916035e+00 0 0 0
405 1 8.9018434153187247e+00 -5.9014031518454324e+01 3.6149959981042361e+00 0 0 -1
406 1 6.3713519269756382e+00 -5.9375516673061085e+01 3.6149960338463831e+00 0 0 -1