LAMMPS data file via write_data, version 15 May 2015, timestep = 554

1224 atoms
5 atom types

0.0000000000000000e+00 1.4905027000000000e+01 xlo xhi
-1.3440821511924773e+02 1.3440821511924773e+02 ylo yhi
0.0000000000000000e+00 3.6150000000000002e+00 zlo zhi

Atoms # atomic

5 1 4.0652648932093722e+00 -1.3252967403070511e+02 3.6149989151422517e+00 0 0 -1
7 1 4.5768859714320964e+00 -1.3075559718545637e+02 1.8074989686192566e+00 0 0 0
8 1 2.4425952183472668e+00 -1.3217518321995016e+02 1.8074989463044531e+00 0 0 0
27 1 7.2482114479307969e-01 -1.3163680378139026e+02 3.6149989541975045e+00 0 0 -1
153 1 2.8363282231646286e-01 -1.3324069283537966e+02 1.8074989243274029e+00 0 0 0
1 1 6.3278203671054216e+00 -1.3117019443106250e+02 3.6149989340668389e+00 0 0 -1
2 1 5.9417004209868729e+00 -1.3286598998701839e+02 1.8074988496080509e+00 0 0 0
61 1 9.8951084855707805e+00 -1.3217518329252113e+02 3.6149989257555601e+00 0 0 -1
100 1 8.1773346375753935e+00 -1.3163680389227886e+02 1.8074989371541872e+00 0 0 0
154 1 7.7361464547812453e+00 -1.3324069267777253e+02 3.6149989107985800e+00 0 0 -1
25 1 1.3394213831258192e+01 -1.3286599025399138e+02 3.6149988487150995e+00 0 0 -1
30 1 1.3780333869092642e+01 -1.3117019431885373e+02 1.8074989346163814e+00 0 0 0
62 1 1.1517778748609823e+01 -1.3252967436680231e+02 1.8074988968406853e+00 0 0 0
63 1 1.2029399495854140e+01 -1.3075559704735892e+02 3.6149989629136217e+00 0 0 -1
6 1 2.8563561462941123e+00 -1.3032204056998961e+02 3.6149989931020343e+00 0 0 -1
12 1 3.2842989624153955e+00 -1.2856322992788668e+02 1.8074990046099773e+00 0 0 0
29 1 1.1121075024118001e+00 -1.2991340388748412e+02 1.8074989905253083e+00 0 0 0
31 1 1.5341645049619068e+00 -1.2814141981814720e+02 3.6149990058642163e+00 0 0 -1
3 1 7.2398441795437503e+00 -1.2770923216114610e+02 3.6149990034667585e+00 0 0 -1
4 1 6.8009655622635252e+00 -1.2946178606704271e+02 1.8074989829196402e+00 0 0 0
9 1 5.0368824687647331e+00 -1.2899776822689125e+02 3.6149990003858568e+00 0 0 -1
11 1 5.4847154289120832e+00 -1.2725978809228477e+02 1.8074989967063817e+00 0 0 0
101 1 8.5646210769956816e+00 -1.2991340388353544e+02 3.6149989826399120e+00 0 0 -1
102 1 8.9866780344618924e+00 -1.2814141983422422e+02 1.8074990052778177e+00 0 0 0
28 1 1.4253479006582998e+01 -1.2946178606748390e+02 3.6149989900796728e+00 0 0 -1
34 1 1.4692357654209935e+01 -1.2770923211141084e+02 1.8074990000353393e+00 0 0 0
64 1 1.0736812449082349e+01 -1.2856322991066600e+02 3.6149990082957801e+00 0 0 -1
65 1 1.2489395936449297e+01 -1.2899776821125997e+02 1.8074989987086323e+00 0 0 0
66 1 1.0308869620463861e+01 -1.3032204041894374e+02 1.8074989804638173e+00 0 0 0
67 1 1.2937228891795769e+01 -1.2725978798739298e+02 3.6149990025297019e+00 0 0 -1
10 1 3.7244285054493766e+00 -1.2681454218625692e+02 3.6149989959972793e+00 0 0 -1
14 1 4.6052361056920175e+00 -1.2331582338637804e+02 3.6149989138539222e+00 0 0 -1
16 1 4.1664661938049878e+00 -1.2506751077951509e+02 1.8074989598755504e+00 0 0 0
32 1 2.2126641007475434e-01 -1.2594743327153462e+02 3.6149989790852191e+00 0 0 -1
33 1 1.9707566118967763e+00 -1.2638000704399167e+02 1.8074989843949847e+00 0 0 0
35 1 2.4109313329392483e+00 -1.2462673128568748e+02 3.6149989448629753e+00 0 0 -1
38 1 6.5788702089947293e-01 -1.2419016994108681e+02 1.8074989301282709e+00 0 0 0
13 1 5.9220459701545973e+00 -1.2550994972187065e+02 3.6149989777573648e+00 0 0 -1
15 1 6.3583183176959412e+00 -1.2375430521474412e+02 1.8074989350678856e+00 0 0 0
103 1 9.4232700963673572e+00 -1.2638000696217956e+02 3.6149989985862141e+00 0 0 -1
104 1 8.1104005072128587e+00 -1.2419016987133472e+02 3.6149989550657726e+00 0 0 -1
105 1 9.8634447871630115e+00 -1.2462673117476126e+02 1.8074989654095259e+00 0 0 0
106 1 7.6737799257565600e+00 -1.2594743325331021e+02 1.8074989875846939e+00 0 0 0
68 1 1.1618979635488721e+01 -1.2506751067361752e+02 3.6149989752423646e+00 0 0 -1
69 1 1.3374559424677644e+01 -1.2550994966754691e+02 1.8074989737880565e+00 0 0 0
70 1 1.1176941973139341e+01 -1.2681454207166767e+02 1.8074990014469290e+00 0 0 0
71 1 1.3810831803500772e+01 -1.2375430520391335e+02 3.6149989285015098e+00 0 0 -1
74 1 1.2057749570296208e+01 -1.2331582328985102e+02 1.8074989276319040e+00 0 0 0
36 1 1.0965699293381368e+00 -1.2243655394445091e+02 3.6149988829084378e+00 0 0 -1
37 1 2.8508455057296631e+00 -1.2287560000221943e+02 1.8074988926777720e+00 0 0 0
39 1 3.2894743152958048e+00 -1.2112308131612494e+02 3.6149988551006684e+00 0 0 -1
41 1 3.7276030696483842e+00 -1.1936949918092030e+02 1.8074988442690492e+00 0 0 0
42 1 1.5355183658543812e+00 -1.2068397268151146e+02 1.8074988519744342e+00 0 0 0
17 1 6.7958371125037855e+00 -1.2199916978381813e+02 3.6149988919415392e+00 0 0 -1
18 1 5.4809022850327249e+00 -1.1980755158346014e+02 3.6149988493796692e+00 0 0 -1
19 1 7.2342574463814335e+00 -1.2024546016737868e+02 1.8074988634351157e+00 0 0 0
20 1 5.0429361185562547e+00 -1.2156170315708638e+02 1.8074988725911780e+00 0 0 0
108 1 8.9880317869967659e+00 -1.2068397254669084e+02 3.6149988800860644e+00 0 0 -1
110 1 8.5490833799884385e+00 -1.2243655381503036e+02 1.8074989110634923e+00 0 0 0
72 1 1.2495449633520574e+01 -1.2156170312260187e+02 3.6149988857421200e+00 0 0 -1
73 1 1.4248350653742287e+01 -1.2199916984279017e+02 1.8074988801855782e+00 0 0 0
75 1 1.4686771038607315e+01 -1.2024546027501633e+02 3.6149988570420790e+00 0 0 -1
78 1 1.2933415841478309e+01 -1.1980755162586975e+02 1.8074988632645863e+00 0 0 0
107 1 1.0303358958429850e+01 -1.2287559985950095e+02 3.6149989243706373e+00 0 0 -1
109 1 1.0741987780876839e+01 -1.2112308120869417e+02 1.8074988865758754e+00 0 0 0
111 1 1.1180116555858080e+01 -1.1936949914988844e+02 3.6149988689224197e+00 0 0 -1
40 1 1.9740457155915310e+00 -1.1893096071554864e+02 3.6149988474494168e+00 0 0 -1
43 1 4.1657886656059961e+00 -1.1761577652470375e+02 3.6149988663641661e+00 0 0 -1
45 1 4.6041163754009151e+00 -1.1586223852807861e+02 1.8074989289431647e+00 0 0 0
46 1 2.4123371127629238e+00 -1.1717751058262942e+02 1.8074988848696760e+00 0 0 0
77 1 2.2032902172648988e-01 -1.1849230352222524e+02 1.8074988608953142e+00 0 0 0
79 1 6.5877047186869420e-01 -1.1673905139389959e+02 3.6149989021094151e+00 0 0 -1
21 1 6.3576715971946900e+00 -1.1630058036882203e+02 3.6149989029034293e+00 0 0 -1
22 1 5.9192354092530861e+00 -1.1805393594896223e+02 1.8074988595322021e+00 0 0 0
112 1 9.8648505712476808e+00 -1.1717751055300202e+02 3.6149988819987149e+00 0 0 -1
114 1 9.4265591352165856e+00 -1.1893096061849359e+02 1.8074988656835200e+00 0 0 0
134 1 7.6728424219752904e+00 -1.1849230339278604e+02 3.6149988602808221e+00 0 0 -1
135 1 8.1112839043872160e+00 -1.1673905127667545e+02 1.8074988899596822e+00 0 0 0
76 1 1.3371748979637497e+01 -1.1805393606642492e+02 3.6149988728653351e+00 0 0 -1
82 1 1.3810185162716344e+01 -1.1630058052469296e+02 1.8074989184955348e+00 0 0 0
113 1 1.1618302175930499e+01 -1.1761577658595061e+02 1.8074988819983220e+00 0 0 0
115 1 1.2056629922475395e+01 -1.1586223865198740e+02 3.6149989290801687e+00 0 0 -1
44 1 2.8506202804296397e+00 -1.1542396275940980e+02 3.6149989584426390e+00 0 0 -1
48 1 3.7273156019145040e+00 -1.1191703336953414e+02 3.6149992247804015e+00 0 0 -1
50 1 3.2889557016786397e+00 -1.1367047355629724e+02 1.8074990734476652e+00 0 0 0
81 1 1.0971096018541731e+00 -1.1498562636783069e+02 1.8074989880129326e+00 0 0 0
83 1 1.5354351606901548e+00 -1.1323214686211456e+02 3.6149991080237291e+00 0 0 -1
23 1 7.2344171266966235e+00 -1.1279378999862649e+02 3.6149991142837212e+00 0 0 -1
24 1 6.7960660674970708e+00 -1.1454721695883408e+02 1.8074989886628077e+00 0 0 0
47 1 5.0424965102992703e+00 -1.1410881748326629e+02 3.6149990291257490e+00 0 0 -1
49 1 5.4808651145000482e+00 -1.1235540696366499e+02 1.8074991731943673e+00 0 0 0
136 1 8.5496230841274130e+00 -1.1498562629713021e+02 3.6149989532861015e+00 0 0 -1
137 1 8.9879486922784917e+00 -1.1323214686772029e+02 1.8074990671265272e+00 0 0 0
80 1 1.4248579616363811e+01 -1.1454721709852605e+02 3.6149990025860221e+00 0 0 -1
86 1 1.4686930660215017e+01 -1.1279379007501237e+02 1.8074991326586085e+00 0 0 0
116 1 1.0741469271463172e+01 -1.1367047364635260e+02 3.6149990354429318e+00 0 0 -1
117 1 1.2495010086890169e+01 -1.1410881763152231e+02 1.8074990174502470e+00 0 0 0
118 1 1.0303133803477152e+01 -1.1542396279427953e+02 1.8074989371036934e+00 0 0 0
119 1 1.2933378694075174e+01 -1.1235540709031422e+02 3.6149991512904252e+00 0 0 -1
122 1 1.1179829196559639e+01 -1.1191703349364506e+02 1.8074991834238074e+00 0 0 0
52 1 4.6040257547801691e+00 -1.0841016216840045e+02 3.6149996259831934e+00 0 0 -1
54 1 4.1656746710090600e+00 -1.1016360166755938e+02 1.8074994173340593e+00 0 0 0
84 1 2.2024425833253691e-01 -1.1104033479712155e+02 3.6149993018127020e+00 0 0 -1
85 1 1.9737771538173154e+00 -1.1147868233571549e+02 1.8074992701519188e+00 0 0 0
87 1 2.4121292815466577e+00 -1.0972523716188280e+02 3.6149994622945312e+00 0 0 -1
89 1 2.8504819211426740e+00 -1.0797179646569735e+02 1.8074996807586015e+00 0 0 0
90 1 6.5859049732904529e-01 -1.0928688246559291e+02 1.8074995073068694e+00 0 0 0
51 1 5.9192192775821608e+00 -1.1060197281276594e+02 3.6149993542244854e+00 0 0 -1
53 1 6.3575675972715757e+00 -1.0884852556320750e+02 1.8074995734740005e+00 0 0 0
138 1 9.4262907130861073e+00 -1.1147868241231045e+02 3.6149992269945215e+00 0 0 -1
139 1 8.1111040453661065e+00 -1.0928688254584470e+02 3.6149995045294330e+00 0 0 -1
140 1 9.8646428574868796e+00 -1.0972523728887369e+02 1.8074994376632676e+00 0 0 0
141 1 7.6727577602574817e+00 -1.1104033480279762e+02 1.8074992904422980e+00 0 0 0
120 1 1.1618188249605423e+01 -1.1016360179294901e+02 3.6149993774833336e+00 0 0 -1
121 1 1.3371732829643522e+01 -1.1060197288747658e+02 1.8074993375926165e+00 0 0 0
123 1 1.3810081088137601e+01 -1.0884852555816278e+02 3.6149995518530500e+00 0 0 -1
126 1 1.2056539292498616e+01 -1.0841016223412738e+02 1.8074996118607567e+00 0 0 0
142 1 1.0302995498119653e+01 -1.0797179657326306e+02 3.6149996773033659e+00 0 0 -1
88 1 1.0969408522723465e+00 -1.0753343453989447e+02 3.6149997265874099e+00 0 0 -1
91 1 3.2888330993546115e+00 -1.0621835398865709e+02 3.6149999072441044e+00 0 0 -1
93 1 3.7271836881056815e+00 -1.0446490983367967e+02 1.8075001455502910e+00 0 0 0
94 1 1.5352909791968057e+00 -1.0577999057805552e+02 1.8074999658926241e+00 0 0 0
55 1 6.7959143395645194e+00 -1.0709507764763383e+02 3.6149998083764028e+00 0 0 -1
56 1 5.4807222046136044e+00 -1.0490327093221113e+02 9.7236600105077287e-08 0 0 0
57 1 7.2342629761154349e+00 -1.0534163044452376e+02 1.8075000548497728e+00 0 0 0
58 1 5.0423742061428918e+00 -1.0665671795702687e+02 1.8074998616257536e+00 0 0 0
143 1 8.9878045477137043e+00 -1.0577999067301161e+02 3.6149999964782999e+00 0 0 -1
145 1 8.5494544370560170e+00 -1.0753343464931601e+02 1.8074997492969445e+00 0 0 0
124 1 1.2494887704444876e+01 -1.0665671794511236e+02 3.6149998569759068e+00 0 0 -1
125 1 1.4248427783707966e+01 -1.0709507757723865e+02 1.8074997895913421e+00 0 0 0
127 1 1.4686776418995102e+01 -1.0534163033471231e+02 3.0906695425159114e-08 0 0 0
130 1 1.2933235673185136e+01 -1.0490327084485834e+02 1.8075001108355964e+00 0 0 0
144 1 1.0741346644146637e+01 -1.0621835403600201e+02 1.8074999338716864e+00 0 0 0
146 1 1.1179697179770701e+01 -1.0446490980680692e+02 1.8084954422903365e-07 0 0 0
92 1 1.9736397767193108e+00 -1.0402654764751327e+02 2.0173712478310790e-07 0 0 0
95 1 4.1655294409974140e+00 -1.0271146509726353e+02 3.8090723375461266e-07 0 0 0
96 1 2.8503372960886266e+00 -1.0051965588408846e+02 6.8395062324810851e-07 0 0 1
97 1 4.6038776497614444e+00 -1.0095801817628536e+02 1.8075006199970451e+00 0 0 0
98 1 2.4119882501245220e+00 -1.0227310240421691e+02 1.8075004457587405e+00 0 0 0
129 1 2.2009713579765308e-01 -1.0358818477605148e+02 1.8075002766533883e+00 0 0 0
131 1 6.5844796799464955e-01 -1.0183473930718662e+02 5.1649037224876793e-07 0 0 0
59 1 6.3574178645607828e+00 -1.0139637908153468e+02 5.6300621942284579e-07 0 0 0
60 1 5.9190710279082550e+00 -1.0314982386557639e+02 1.8075003330925061e+00 0 0 0
99 1 8.1109614428153041e+00 -1.0183473933866031e+02 1.8075005272970355e+00 0 0 0
147 1 9.8645016940139705e+00 -1.0227310239906481e+02 4.7875902575711393e-07 0 0 0
149 1 9.4261532794434277e+00 -1.0402654768996830e+02 1.8075002450033684e+00 0 0 0
152 1 7.6726106527551003e+00 -1.0358818486652434e+02 2.9089772990431584e-07 0 0 0
128 1 1.3371584491100526e+01 -1.0314982377036303e+02 3.5450414426207999e-07 0 0 0
133 1 1.3809931336415653e+01 -1.0139637903396581e+02 1.8075005956526475e+00 0 0 0
148 1 1.1618042882683881e+01 -1.0271146504078249e+02 1.8075004265373154e+00 0 0 0
150 1 1.2056391083311297e+01 -1.0095801813020536e+02 6.5864513310032180e-07 0 0 1
151 1 1.0302850730471453e+01 -1.0051965585222982e+02 1.8075007101830753e+00 0 0 0
132 1 1.0967947695724571e+00 -1.0008129434068651e+02 1.8075007577037903e+00 0 0 0
158 1 3.7270291440696663e+00 -9.7012763238263659e+01 1.1600332183725470e-06 0 0 1
160 1 3.2886818455735716e+00 -9.8766209014353478e+01 1.8075009233637256e+00 0 0 0
174 1 1.5351407806127875e+00 -9.8327848138660514e+01 9.9369733597143295e-07 0 0 1
176 1 1.9734876600944060e+00 -9.6574400633728445e+01 1.8075012253902865e+00 0 0 0
26 1 8.5493082376427356e+00 -1.0008129431590105e+02 7.5087111151006525e-07 0 0 1
155 1 7.2341151388377680e+00 -9.7889486133146136e+01 1.0281048257176906e-06 0 0 1
157 1 5.0422257178725127e+00 -9.9204569987349586e+01 8.5351086021034916e-07 0 0 1
159 1 5.4805701225234191e+00 -9.7451125045738678e+01 1.8075010926951742e+00 0 0 0
244 1 8.9876542638122352e+00 -9.8327848095102937e+01 1.8075009779751239e+00 0 0 0
245 1 9.4260011478652359e+00 -9.6574400605885543e+01 1.2024893329964925e-06 0 0 1
307 1 6.7957663559248065e+00 -9.9642932606344758e+01 1.8075007986081379e+00 0 0 0
177 1 1.4686628646180381e+01 -9.7889486165126371e+01 1.8075010592985314e+00 0 0 0
206 1 1.0741195314329547e+01 -9.8766208980648173e+01 9.3263792155795500e-07 0 0 1
207 1 1.2494739184471385e+01 -9.9204569972262007e+01 1.8075008916434427e+00 0 0 0
208 1 1.2933083630007228e+01 -9.7451125053707102e+01 1.1094622744955984e-06 0 0 1
211 1 1.1179542643315976e+01 -9.7012763221167688e+01 1.8075011548909470e+00 0 0 0
308 1 1.4248279845216642e+01 -9.9642932613314088e+01 8.2973706350131238e-07 0 0 1
162 1 4.6037196599728265e+00 -9.3505871997125723e+01 1.6240002449485758e-06 0 0 1
164 1 4.1653764243855322e+00 -9.5259317243828434e+01 1.8075013970515854e+00 0 0 0
175 1 2.1994542260122879e-01 -9.6136040128065957e+01 1.2782475447004060e-06 0 0 1
178 1 2.4118326208396459e+00 -9.4820955388694244e+01 1.4534248027331387e-06 0 0 1
180 1 2.8501784388545270e+00 -9.3067509997224747e+01 1.8075016748703121e+00 0 0 0
181 1 6.5829057805206992e-01 -9.4382593092393861e+01 1.8075015011870967e+00 0 0 0
161 1 5.9189174397821835e+00 -9.5697679324420292e+01 1.3274443930733071e-06 0 0 1
163 1 6.3572628118582157e+00 -9.3944231628976539e+01 1.8075015572693813e+00 0 0 0
246 1 8.1108040667140546e+00 -9.4382593070544075e+01 1.4870393290067341e-06 0 0 1
247 1 9.8643461053105419e+00 -9.4820955375655871e+01 1.8075014243352090e+00 0 0 0
248 1 7.6724589035290638e+00 -9.6136040103847350e+01 1.8075012605004543e+00 0 0 0
209 1 1.1617889922564663e+01 -9.5259317245386825e+01 1.3693368110523352e-06 0 0 1
210 1 1.3371430954688773e+01 -9.5697679337542496e+01 1.8075013257606911e+00 0 0 0
212 1 1.3809776304096639e+01 -9.3944231652556155e+01 1.5371722832391299e-06 0 0 1
215 1 1.2056233138145585e+01 -9.3505872010093498e+01 1.8075015794479421e+00 0 0 0
249 1 1.0302691925641794e+01 -9.3067509989961962e+01 1.6369335407162566e-06 0 0 1
179 1 1.0966355326082282e+00 -9.2629146944556865e+01 1.7138797612226142e-06 0 0 1
182 1 3.2885224204667773e+00 -9.1314064035935729e+01 1.8831158707932616e-06 0 0 1
183 1 1.9733225020214389e+00 -8.9122257359201882e+01 2.1222875301596389e-06 0 0 1
184 1 3.7268649893150929e+00 -8.9560619182055135e+01 1.8075020802573074e+00 0 0 0
185 1 1.5349791510806261e+00 -9.0875702011202293e+01 1.8075019222828870e+00 0 0 0
165 1 6.7956066354767302e+00 -9.2190786244439948e+01 1.7750581697839607e-06 0 0 1
166 1 5.4804078853309104e+00 -8.9998979278242317e+01 2.0393782911298786e-06 0 0 1
167 1 7.2339503518763291e+00 -9.0437339937540258e+01 1.8075019804243129e+00 0 0 0
168 1 5.0420647341025573e+00 -9.1752425611306833e+01 1.8075018378232783e+00 0 0 0
250 1 8.9874926620436622e+00 -9.0875701968533960e+01 1.9147145611242422e-06 0 0 1
252 1 8.5491490377847779e+00 -9.2629146914819700e+01 1.8075017053107567e+00 0 0 0
256 1 9.4258360008709587e+00 -8.9122257326740652e+01 1.8075021201085466e+00 0 0 0
213 1 1.2494578219335247e+01 -9.1752425624187893e+01 1.7911587839591903e-06 0 0 1
214 1 1.4248120114874752e+01 -9.2190786278138717e+01 1.8075017491057945e+00 0 0 0
216 1 1.4686463851425916e+01 -9.0437339976101626e+01 1.9599652008039925e-06 0 0 1
219 1 1.2932921401684089e+01 -8.9998979291239380e+01 1.8075020031089315e+00 0 0 0
251 1 1.0741035923135867e+01 -9.1314064014652374e+01 1.8075018495471618e+00 0 0 0
253 1 1.1179378508833739e+01 -8.9560619164951376e+01 2.0600452339536446e-06 0 0 1
186 1 4.1652066871681361e+00 -8.7807174128207294e+01 2.2668205748033188e-06 0 0 1
187 1 2.8500044034300251e+00 -8.5615367664579324e+01 2.4841995793778437e-06 0 0 1
188 1 4.6035476158062032e+00 -8.6053728645158770e+01 1.8075024403847675e+00 0 0 0
189 1 2.4116639560799098e+00 -8.7368813127846167e+01 1.8075023058584923e+00 0 0 0
218 1 2.1977909121556430e-01 -8.8683895363152132e+01 1.8075021644416540e+00 0 0 0
220 1 6.5812055332977681e-01 -8.6930451039878619e+01 2.3574595209296945e-06 0 0 1
169 1 6.3570906897674728e+00 -8.6492089217772033e+01 2.4039714907608811e-06 0 0 1
170 1 5.9187494368253031e+00 -8.8245534565459039e+01 1.8075022238360468e+00 0 0 0
254 1 9.8641774379556892e+00 -8.7368813126543657e+01 2.3194744915855381e-06 0 0 1
280 1 7.6722925593135258e+00 -8.8683895332657968e+01 2.1765386106764595e-06 0 0 1
281 1 8.1106340079098853e+00 -8.6930451019772519e+01 1.8075023648288107e+00 0 0 0
217 1 1.3371262977706383e+01 -8.8245534588797611e+01 2.2108360857586717e-06 0 0 1
223 1 1.3809604234764082e+01 -8.6492089257839794e+01 1.8075024076718553e+00 0 0 0
255 1 1.1617720207010203e+01 -8.7807174139457871e+01 1.8075022674174361e+00 0 0 0
257 1 1.2056061132242791e+01 -8.6053728692272486e+01 2.4617455554043488e-06 0 0 1
260 1 1.0302517888739581e+01 -8.5615367695778900e+01 1.8075025114398826e+00 0 0 0
191 1 3.7266825414949327e+00 -8.2108479043913547e+01 2.8073343907308868e-06 0 0 1
193 1 3.2883441155701876e+00 -8.3861922930145596e+01 1.8075026512494472e+00 0 0 0
222 1 1.0964608217957790e+00 -8.5177005575643435e+01 1.8075025347092053e+00 0 0 0
224 1 1.5348004675627838e+00 -8.3423561649190930e+01 2.7031661407050933e-06 0 0 1
226 1 1.9731384408195194e+00 -8.1670117813873375e+01 1.8075028457711413e+00 0 0 0
171 1 7.2337701379794144e+00 -8.2985200185092808e+01 2.7445411934223785e-06 0 0 1
172 1 6.7954306635667958e+00 -8.4738643941078365e+01 1.8075025795185122e+00 0 0 0
190 1 5.0418874458891532e+00 -8.4300283408304935e+01 2.6133910253633985e-06 0 0 1
192 1 5.4802264434138159e+00 -8.2546839544292311e+01 1.8075027721852537e+00 0 0 0
282 1 8.5489742917954032e+00 -8.5177005568800240e+01 2.5470047879672109e-06 0 0 1
283 1 8.9873139615300648e+00 -8.3423561666176354e+01 1.8075027168462663e+00 0 0 0
284 1 9.4256519579835594e+00 -8.1670117857774258e+01 2.8568258070293950e-06 0 0 1
221 1 1.4247944190962976e+01 -8.4738643994403859e+01 2.5890238872783300e-06 0 0 1
227 1 1.4686283655106092e+01 -8.2985200228772669e+01 1.8075027512639750e+00 0 0 0
258 1 1.0740857619237159e+01 -8.3861922994949168e+01 2.6846139187242102e-06 0 0 1
259 1 1.2494400960366471e+01 -8.4300283486198310e+01 1.8075026404423424e+00 0 0 0
261 1 1.2932739970130038e+01 -8.2546839627189669e+01 2.7949476963939901e-06 0 0 1
264 1 1.1179196072440826e+01 -8.2108479127184410e+01 1.8075028315343800e+00 0 0 0
195 1 4.6033552814516581e+00 -7.8601590833869253e+01 3.0215912878439610e-06 0 0 1
197 1 4.1650195555196907e+00 -8.0355034987084721e+01 1.8075029361971113e+00 0 0 0
225 1 2.1959444114748780e-01 -8.1231756398743187e+01 2.8854823832524801e-06 0 0 1
228 1 2.4114749989757067e+00 -7.9916673938474446e+01 2.9631110924910331e-06 0 0 1
229 1 1.0962664300495342e+00 -7.7724869099415415e+01 3.0530580472643010e-06 0 0 1
230 1 2.8498110288490652e+00 -7.8163230449603660e+01 1.8075030407440065e+00 0 0 0
231 1 6.5793043715401700e-01 -7.9478312304790265e+01 1.8075029886390355e+00 0 0 0
194 1 5.9185638717350839e+00 -8.0793395508749640e+01 2.9090602042813885e-06 0 0 1
196 1 6.3568994936342182e+00 -7.9039951120721710e+01 1.8075030040425344e+00 0 0 0
285 1 8.1104439396053021e+00 -7.9478312339000610e+01 2.9859746497606920e-06 0 0 1
286 1 9.8639885327783219e+00 -7.9916674024895912e+01 1.8075029641901836e+00 0 0 0
287 1 7.6721079332652939e+00 -8.1231756382685717e+01 1.8075028845204035e+00 0 0 0
291 1 8.5487799598954357e+00 -7.7724869184183930e+01 1.8075030422188683e+00 0 0 0
262 1 1.1617533102965519e+01 -8.0355035087410684e+01 2.9458784038816077e-06 0 0 1
263 1 1.3371077410413136e+01 -8.0793395582040759e+01 1.8075029198726766e+00 0 0 0
265 1 1.3809413023358070e+01 -7.9039951161443582e+01 3.0066683649465631e-06 0 0 1
268 1 1.2055868828382575e+01 -7.8601590937339921e+01 1.8075030203115310e+00 0 0 0
288 1 1.0302324574171163e+01 -7.8163230571258197e+01 3.0297581914418004e-06 0 0 1
232 1 3.2881459632428767e+00 -7.6409786677494623e+01 3.0774909789421656e-06 0 0 1
233 1 1.9729335308519518e+00 -7.4217983298962309e+01 3.0836939366452043e-06 0 0 1
234 1 3.7264787202068574e+00 -7.4656343391529660e+01 1.8075030861400030e+00 0 0 0
235 1 1.5346013168139434e+00 -7.5971426145425426e+01 1.8075030818869569e+00 0 0 0
198 1 6.7952350612722077e+00 -7.7286507463547622e+01 3.0542016022927498e-06 0 0 1
199 1 5.4800240149729387e+00 -7.5094703683721718e+01 3.0807323665449360e-06 0 0 1
200 1 7.2335695736410814e+00 -7.5533064851406508e+01 1.8075030746749117e+00 0 0 0
201 1 5.0416903431032027e+00 -7.6848146677503934e+01 1.8075030671300896e+00 0 0 0
289 1 8.9871148918402817e+00 -7.5971426261538213e+01 3.0673049189466894e-06 0 0 1
295 1 9.4254471210534092e+00 -7.4217983411235807e+01 1.8075030692700629e+00 0 0 0
266 1 1.2494203870058859e+01 -7.6848146754626413e+01 3.0600782432443907e-06 0 0 1
267 1 1.4247748554011643e+01 -7.7286507456472762e+01 1.8075030570282742e+00 0 0 0
269 1 1.4686083016012191e+01 -7.5533064787453014e+01 3.0775419257444980e-06 0 0 1
272 1 1.2932537504060839e+01 -7.5094703692082405e+01 1.8075030766037683e+00 0 0 0
290 1 1.0740659518877548e+01 -7.6409786801406014e+01 1.8075030623811907e+00 0 0 0
292 1 1.1178992274943624e+01 -7.4656343466836859e+01 3.0699898103669909e-06 0 0 1
236 1 4.1648094404042411e+00 -7.2902900766089715e+01 3.0713399192805468e-06 0 0 1
237 1 2.8495937850703470e+00 -7.0711097403665690e+01 3.0281169518531215e-06 0 0 1
238 1 4.6031399274345040e+00 -7.1149458350393544e+01 1.8075030404187680e+00 0 0 0
239 1 2.4112635719304985e+00 -7.2464540106637799e+01 1.8075030678119763e+00 0 0 0
271 1 2.1938797414603486e-01 -7.3779622638590766e+01 1.8075030776838050e+00 0 0 0
273 1 6.5771791853787209e-01 -7.2026179489458201e+01 3.0577220866412347e-06 0 0 1
275 1 1.0960477690866115e+00 -7.0272736288992576e+01 1.8075030123846783e+00 0 0 0
202 1 6.3566858284645473e+00 -7.1587819015056439e+01 3.0450444317153824e-06 0 0 1
203 1 5.9183555399256242e+00 -7.3341261671551806e+01 1.8075030712337179e+00 0 0 0
293 1 9.8637771277372028e+00 -7.2464540169781429e+01 3.0542038387260106e-06 0 0 1
302 1 7.6719015596069484e+00 -7.3779622748854763e+01 3.0721376673703560e-06 0 0 1
303 1 8.1102314840438314e+00 -7.2026179601456064e+01 1.8075030527184406e+00 0 0 0
304 1 8.5485612873534436e+00 -7.0272736359383700e+01 3.0128790906580605e-06 0 0 1
270 1 1.3370868999656722e+01 -7.3341261598614793e+01 3.0707436939891863e-06 0 0 1
276 1 1.3809199275504110e+01 -7.1587818899086457e+01 1.8075030455532304e+00 0 0 0
294 1 1.1617322959306417e+01 -7.2902900759281806e+01 1.8075030601251156e+00 0 0 0
296 1 1.2055653397469312e+01 -7.1149458277475347e+01 3.0348723449868942e-06 0 0 1
299 1 1.0302107280414109e+01 -7.0711097402823597e+01 1.8075030219838553e+00 0 0 0
173 1 2.1916689721354701e-01 -6.6327490864537069e+01 2.8145000099399908e-06 0 0 1
241 1 3.7262571158546631e+00 -6.7204211917924368e+01 2.8767820157149515e-06 0 0 1
243 1 3.2879254239887543e+00 -6.8957655388512606e+01 1.8075029674217171e+00 0 0 0
277 1 1.5343796873008262e+00 -6.8519294412658638e+01 2.9427538010828869e-06 0 0 1
278 1 1.9727122846905822e+00 -6.6765851834996141e+01 1.8075028424986366e+00 0 0 0
156 1 7.6716803599908419e+00 -6.6327490885955683e+01 1.8075028355177838e+00 0 0 0
204 1 7.2333473207252315e+00 -6.8080932957713273e+01 2.9331943602883825e-06 0 0 1
205 1 6.7950157905649338e+00 -6.9834375669462176e+01 1.8075030014364195e+00 0 0 0
240 1 5.0414706808485876e+00 -6.9396015555887061e+01 2.9867636421876398e-06 0 0 1
242 1 5.4798019443330395e+00 -6.7642571998673787e+01 1.8075029079899818e+00 0 0 0
305 1 8.9868931663113329e+00 -6.8519294420411782e+01 1.8075029527890123e+00 0 0 0
306 1 9.4252257447841927e+00 -6.6765851820435586e+01 2.8629841128946509e-06 0 0 1
274 1 1.4247529253930775e+01 -6.9834375561872378e+01 2.9956646323547886e-06 0 0 1
279 1 1.4685860822716190e+01 -6.8080932904008790e+01 1.8075029178953672e+00 0 0 0
297 1 1.0740438887774779e+01 -6.8957655338307177e+01 2.9667572354341587e-06 0 0 1
298 1 1.2493984138415032e+01 -6.9396015459209337e+01 1.8075029810658128e+00 0 0 0
300 1 1.2932315425548829e+01 -6.7642571927611584e+01 2.9007293558258596e-06 0 0 1
301 1 1.1178770584592435e+01 -6.7204211866494035e+01 1.8075028836588261e+00 0 0 0
310 1 4.6029202919195784e+00 -6.3697326403099900e+01 2.6216750668162092e-06 0 0 1
312 1 4.1645887659324279e+00 -6.5450768439560804e+01 1.8075027598438178e+00 0 0 0
322 1 2.4110435024986594e+00 -6.5012408284887726e+01 2.7221018452650014e-06 0 0 1
323 1 1.0958282043350087e+00 -6.2820604838598882e+01 2.5480066341287966e-06 0 0 1
324 1 2.8493741309116105e+00 -6.3258965476114739e+01 1.8075025796318451e+00 0 0 0
325 1 6.5749837856270954e-01 -6.4574048179664146e+01 1.8075026891676169e+00 0 0 0
309 1 5.9181345001808943e+00 -6.5889129402691623e+01 2.7986376971433913e-06 0 0 1
311 1 6.3564663151074408e+00 -6.4135687493776913e+01 1.8075026669404870e+00 0 0 0
388 1 8.1100118384969662e+00 -6.4574048194875175e+01 2.7089443443983896e-06 0 0 1
389 1 9.8635569714177986e+00 -6.5012408279749422e+01 1.8075027458528496e+00 0 0 0
394 1 8.5483416851592899e+00 -6.2820604865539416e+01 1.8075025599940806e+00 0 0 0
350 1 1.1617102259358498e+01 -6.5450768411903780e+01 2.7713017947128549e-06 0 0 1
351 1 1.3370648022807273e+01 -6.5889129365728621e+01 1.8075027912101636e+00 0 0 0
352 1 1.3808979842106673e+01 -6.4135687481685892e+01 2.6614240353772800e-06 0 0 1
355 1 1.2055433790915048e+01 -6.3697326408332152e+01 1.8075026374877552e+00 0 0 0
391 1 1.0301887609627997e+01 -6.3258965501492852e+01 2.6030656781195205e-06 0 0 1
326 1 3.2877044205126440e+00 -6.1505523047653554e+01 2.4178900441818030e-06 0 0 1
327 1 1.9724896052331056e+00 -5.9313720140376603e+01 2.1983334335118343e-06 0 0 1
328 1 3.7260349264170451e+00 -5.9752080404480942e+01 1.8075022368903131e+00 0 0 0
329 1 1.5341582921595225e+00 -6.1067162175026525e+01 1.8075023871172970e+00 0 0 0
358 1 2.1894402340592523e-01 -5.8875359008337121e+01 1.8075021615006737e+00 0 0 0
313 1 6.7947960035986412e+00 -6.2382244278919842e+01 2.5071983711377754e-06 0 0 1
314 1 5.4795801595334321e+00 -6.0190440482154834e+01 2.2758721680560257e-06 0 0 1
315 1 7.2331257668408178e+00 -6.0628801145332012e+01 1.8075023290563068e+00 0 0 0
316 1 5.0412503236407753e+00 -6.1943883680871522e+01 1.8075024624816329e+00 0 0 0
392 1 8.9866718056702677e+00 -6.1067162201531374e+01 2.3837899765233317e-06 0 0 1
398 1 9.4250031451154523e+00 -5.9313720161855088e+01 1.8075021927962718e+00 0 0 0
427 1 7.6714575706528505e+00 -5.8875359039962831e+01 2.1234872247255510e-06 0 0 1
353 1 1.2493763807096686e+01 -6.1943883694844217e+01 2.4835272149914545e-06 0 0 1
354 1 1.4247309505449216e+01 -6.2382244268716221e+01 1.8075025198429306e+00 0 0 0
356 1 1.4685639235727239e+01 -6.0628801132013180e+01 2.3505333643925042e-06 0 0 1
359 1 1.2932093635311517e+01 -6.0190440483702545e+01 1.8075023104262662e+00 0 0 0
393 1 1.0740217911317652e+01 -6.1505523075103888e+01 1.8075024442785799e+00 0 0 0
395 1 1.1178548433289382e+01 -5.9752080415568756e+01 2.2533660462009664e-06 0 0 1
330 1 4.1643675251096708e+00 -5.7998637114314917e+01 2.0260942501515444e-06 0 0 1
331 1 2.8491581459397088e+00 -5.5806832939925563e+01 1.7370018654538910e-06 0 0 1
332 1 4.6027024079831600e+00 -5.6245193353721334e+01 1.8075017931518997e+00 0 0 0
333 1 2.4108231221361933e+00 -5.7560277118793685e+01 1.8075019851982357e+00 0 0 0
360 1 6.5727839927233367e-01 -5.7121916354483815e+01 1.9311602792448923e-06 0 0 1
362 1 1.0956139423834261e+00 -5.5368472643473886e+01 1.8075016720697485e+00 0 0 0
317 1 6.3562470401879656e+00 -5.6683554732748043e+01 1.8387022220345273e-06 0 0 1
318 1 5.9179122149719117e+00 -5.8436997661598028e+01 1.8075020722256265e+00 0 0 0
320 1 6.7945830649044900e+00 -5.4930111527289718e+01 1.8075015900000764e+00 0 0 0
396 1 9.8633366675030754e+00 -5.7560277122998180e+01 1.9621239424338910e-06 0 0 1
428 1 8.1097919438672950e+00 -5.7121916399389455e+01 1.8075018979982362e+00 0 0 0
429 1 8.5481274754258294e+00 -5.5368472688362488e+01 1.6417612997976505e-06 0 0 1
357 1 1.3370425692503273e+01 -5.8436997625901526e+01 2.1031025805307024e-06 0 0 1
361 1 1.4247096534682589e+01 -5.4930111436192391e+01 1.5905959767081868e-06 0 0 1
363 1 1.3808760515924842e+01 -5.6683554663065614e+01 1.8075018640852711e+00 0 0 0
397 1 1.1616881041309975e+01 -5.7998637090214011e+01 1.8075020393353440e+00 0 0 0
399 1 1.2055215914091537e+01 -5.6245193290192177e+01 1.7845562467755371e-06 0 0 1
402 1 1.0301671670370807e+01 -5.5806832920805938e+01 1.8075017103564466e+00 0 0 0
335 1 3.7258311448845669e+00 -5.2299944684064045e+01 1.1854651407183781e-06 0 0 1
337 1 3.2874939564353829e+00 -5.4053388774731474e+01 1.8075014709459769e+00 0 0 0
364 1 1.5339496586705965e+00 -5.3615028206213616e+01 1.3907334750484779e-06 0 0 1