LAMMPS data file via write_data, version 15 May 2015, timestep = 868

1968 atoms
5 atom types

0.0000000000000000e+00 2.3147293999999999e+01 xlo xhi
-1.3903043747858328e+02 1.3903043747858328e+02 ylo yhi
0.0000000000000000e+00 3.6150000000000002e+00 zlo zhi

Atoms # atomic

15 1 3.1371295218106270e+00 -1.3657574992835046e+02 2.2547881847976741e+00 0 0 0
33 1 1.6922050127632615e+00 -1.3552445589308419e+02 4.4728846423745205e-01 0 0 0
1812 1 2.0064298191727161e+00 -1.3787625557285551e+02 4.4728820026134025e-01 0 0 0
1813 1 3.2959260824087178e+00 -1.3903041771308037e+02 2.2547876538577816e+00 0 0 0
1852 1 5.4380232686007135e-01 -1.3726820344094367e+02 2.2547880801432094e+00 0 0 0
13 1 4.2836037832320706e+00 -1.3528421606555619e+02 4.4728841485438353e-01 0 0 0
14 1 5.7133350551476116e+00 -1.3649471834493582e+02 2.2547881325921861e+00 0 0 0
1777 1 7.1131307902824892e+00 -1.3775059659554881e+02 4.4728795465562993e-01 0 0 0
1809 1 5.8720359116093519e+00 -1.3903041776611528e+02 2.2547877113679076e+00 0 0 0
1811 1 4.5515072426307794e+00 -1.3777840520822423e+02 4.4728802786780897e-01 0 0 0
4 1 1.0781120743912522e+01 -1.3619895694784466e+02 2.2547881880569309e+00 0 0 0
5 1 8.2690598081202733e+00 -1.3643109122164884e+02 2.2547881240308438e+00 0 0 0
1774 1 1.1145376366239688e+01 -1.3903041773662775e+02 2.2547877269959895e+00 0 0 0
1776 1 9.6739006886974312e+00 -1.3770858826144990e+02 4.4728793186622634e-01 0 0 0
1778 1 8.4662072632957255e+00 -1.3903041774241086e+02 2.2547877253306821e+00 0 0 0
2 1 1.3265851934298588e+01 -1.3552445572382678e+02 2.2547884092683210e+00 0 0 0
93 1 1.4710776570847184e+01 -1.3657575006345411e+02 4.4728814773835035e-01 0 0 0
1749 1 1.4869573105137063e+01 -1.3903041749800849e+02 4.4728763899377882e-01 0 0 0
1750 1 1.2117449281102475e+01 -1.3726820345682285e+02 4.4728803468247297e-01 0 0 0
1751 1 1.3580076936069172e+01 -1.3787625566507322e+02 2.2547881445263953e+00 0 0 0
58 1 1.7286982078657555e+01 -1.3649471829310912e+02 4.4728812223179554e-01 0 0 0
94 1 1.5857250836405882e+01 -1.3528421604224221e+02 2.2547883792078967e+00 0 0 0
1731 1 1.7445682945798882e+01 -1.3903041776882944e+02 4.4728771600895184e-01 0 0 0
1732 1 1.8686777838623506e+01 -1.3775059658224686e+02 2.2547879670195812e+00 0 0 0
1734 1 1.6125154189929958e+01 -1.3777840520145625e+02 2.2547880050251501e+00 0 0 0
32 1 2.2354767718251516e+01 -1.3619895691208214e+02 4.4728824384547616e-01 0 0 0
59 1 1.9842706820101149e+01 -1.3643109120919470e+02 4.4728814445138143e-01 0 0 0
1723 1 2.2719023368773886e+01 -1.3903041773858044e+02 4.4728777165755862e-01 0 0 0
1724 1 2.1247547664647264e+01 -1.3770858826192784e+02 2.2547879672873830e+00 0 0 0
1730 1 2.0039854284568420e+01 -1.3903041772323706e+02 4.4728775130594506e-01 0 0 0
34 1 1.4227838468440483e+00 -1.3307675085920553e+02 4.4728869474505539e-01 0 0 0
35 1 2.8451616962994568e+00 -1.3413410877703419e+02 2.2547885476732530e+00 0 0 0
36 1 2.9001168826460999e-01 -1.3463170713627102e+02 2.2547884613599458e+00 0 0 0
40 1 2.5675564252453489e+00 -1.3165909944825057e+02 2.2547888248384145e+00 0 0 0
65 1 2.2670742233599075e-02 -1.3206078653643362e+02 2.2547887598549727e+00 0 0 0
16 1 6.8488333090970341e+00 -1.3518551317718072e+02 4.4728833041733146e-01 0 0 0
17 1 6.5522947238398395e+00 -1.3262886654438114e+02 4.4728864964644427e-01 0 0 0
19 1 5.4212788737816870e+00 -1.3396900765602862e+02 2.2547885019446352e+00 0 0 0
37 1 3.9926937900503798e+00 -1.3278974153262453e+02 4.4728870413451255e-01 0 0 0
3 1 9.3801104103047823e+00 -1.3504062347115166e+02 4.4728829757846733e-01 0 0 0
9 1 1.0486272555804796e+01 -1.3356457909146576e+02 2.2547885201807429e+00 0 0 0
18 1 7.9710233711114329e+00 -1.3383359863709492e+02 2.2547884629084223e+00 0 0 0
20 1 9.0860910767403507e+00 -1.3242764414195341e+02 4.4728863361806681e-01 0 0 0
1 1 1.4418808654138601e+01 -1.3413410870308184e+02 4.4728850597846370e-01 0 0 0
6 1 1.1863658763344120e+01 -1.3463170718760077e+02 4.4728841130088404e-01 0 0 0
7 1 1.1596317705525985e+01 -1.3206078653890359e+02 4.4728870716190056e-01 0 0 0
8 1 1.2996430878765166e+01 -1.3307675096836391e+02 2.2547886437084981e+00 0 0 0
10 1 1.4141203439514955e+01 -1.3165909946902906e+02 4.4728877866023486e-01 0 0 0
62 1 1.8422480294279652e+01 -1.3518551315894041e+02 2.2547883306392174e+00 0 0 0
95 1 1.6994925884847479e+01 -1.3396900764829817e+02 4.4728848970647800e-01 0 0 0
97 1 1.8125941735237639e+01 -1.3262886652043534e+02 2.2547886503962697e+00 0 0 0
98 1 1.5566340765094720e+01 -1.3278974152086241e+02 2.2547886666092074e+00 0 0 0
60 1 1.9544670370976359e+01 -1.3383359860337305e+02 4.4728848907681673e-01 0 0 0
61 1 2.0953757434330207e+01 -1.3504062344775548e+02 2.2547883371561728e+00 0 0 0
63 1 2.2059919576590506e+01 -1.3356457907918264e+02 4.4728856503424491e-01 0 0 0
66 1 2.0659738062287204e+01 -1.3242764411545866e+02 2.2547886639003214e+00 0 0 0
38 1 3.7084783385627875e+00 -1.3028319596382138e+02 4.4728895444878763e-01 0 0 0
67 1 1.1520489035393240e+00 -1.3057988289125100e+02 4.4728893205010989e-01 0 0 0
68 1 8.7655002043147190e-01 -1.2806094588560214e+02 4.4728914849132528e-01 0 0 0
69 1 2.2893862973622316e+00 -1.2915878218156053e+02 2.2547890623328084e+00 0 0 0
71 1 3.4257280786523134e+00 -1.2776588549569254e+02 4.4728916416455700e-01 0 0 0
23 1 7.6769157745362797e+00 -1.3125486122238829e+02 2.2547887831730886e+00 0 0 0
39 1 5.1305133659614004e+00 -1.3144191889616644e+02 2.2547888116368409e+00 0 0 0
41 1 6.2617022148928205e+00 -1.3007766404722673e+02 4.4728893226364980e-01 0 0 0
43 1 7.3881073907175274e+00 -1.2868976250295788e+02 2.2547890376042075e+00 0 0 0
44 1 4.8437915956458921e+00 -1.2891175293383597e+02 2.2547890529694876e+00 0 0 0
21 1 8.7975859364867812e+00 -1.2984432305043009e+02 4.4728892253766450e-01 0 0 0
22 1 1.0201077673794504e+01 -1.3097500139828844e+02 2.2547888046510698e+00 0 0 0
24 1 1.1321197825173833e+01 -1.2950945710767866e+02 4.4728895795259360e-01 0 0 0
27 1 9.9184067152774329e+00 -1.2840732928009925e+02 2.2547890492590565e+00 0 0 0
11 1 1.3863033281805384e+01 -1.2915878218071381e+02 4.4728900716794279e-01 0 0 0
12 1 1.2725695878061474e+01 -1.3057988286371199e+02 2.2547888785339145e+00 0 0 0
26 1 1.2450197025963934e+01 -1.2806094591257386e+02 2.2547890919011699e+00 0 0 0
134 1 1.5282125335283858e+01 -1.3028319595870792e+02 2.2547889098660030e+00 0 0 0
138 1 1.4999375066607543e+01 -1.2776588549173053e+02 2.2547891118284458e+00 0 0 0
96 1 1.6704160352256942e+01 -1.3144191886857766e+02 4.4728878114640835e-01 0 0 0
99 1 1.9250562776351263e+01 -1.3125486120626334e+02 4.4728878554059515e-01 0 0 0
100 1 1.8961754381658963e+01 -1.2868976247978324e+02 4.4728904356511506e-01 0 0 0
102 1 1.7835349201868343e+01 -1.3007766402650827e+02 2.2547889073113874e+00 0 0 0
135 1 1.6417438589221540e+01 -1.2891175292005474e+02 4.4728901785716313e-01 0 0 0
64 1 2.1774724664251647e+01 -1.3097500136749204e+02 4.4728885108066974e-01 0 0 0
70 1 2.2894844814791945e+01 -1.2950945708427551e+02 2.2547890046002048e+00 0 0 0
101 1 2.0371232940457869e+01 -1.2984432302954403e+02 2.2547889436392876e+00 0 0 0
103 1 2.1492053719669364e+01 -1.2840732926425505e+02 4.4728908346642116e-01 0 0 0
72 1 3.1434695962509500e+00 -1.2524034322585351e+02 4.4728934505190060e-01 0 0 0
74 1 2.0100214724986931e+00 -1.2664197015615578e+02 2.2547892488272621e+00 0 0 0
107 1 5.9814479855718927e-01 -1.2553186178154185e+02 4.4728932236561719e-01 0 0 0
109 1 1.7296438461346624e+00 -1.2411531863788761e+02 2.2547894135870359e+00 0 0 0
42 1 5.9745085995646114e+00 -1.2753061203276789e+02 4.4728915608898689e-01 0 0 0
48 1 7.1019836571289643e+00 -1.2613396825818842e+02 2.2547892450260170e+00 0 0 0
73 1 4.5589679313497671e+00 -1.2637877530905722e+02 2.2547892614058531e+00 0 0 0
75 1 5.6892311304456227e+00 -1.2498633709762051e+02 4.4728933310478131e-01 0 0 0
25 1 1.1042800595181083e+01 -1.2696428715632598e+02 4.4728916863448409e-01 0 0 0
45 1 8.5120498515078715e+00 -1.2727824479865443e+02 4.4728914439422418e-01 0 0 0
46 1 8.2279476606748734e+00 -1.2472243949630248e+02 4.4728932830176654e-01 0 0 0
47 1 9.6362738326408035e+00 -1.2585131520765198e+02 2.2547892457637611e+00 0 0 0
49 1 1.0762735049462423e+01 -1.2442135184066190e+02 4.4728932724085096e-01 0 0 0
28 1 1.3583668472834123e+01 -1.2664197016931584e+02 4.4728919204192430e-01 0 0 0
29 1 1.3303290839089048e+01 -1.2411531864180360e+02 4.4728935572848799e-01 0 0 0
30 1 1.2171791795691870e+01 -1.2553186179726387e+02 2.2547892592687977e+00 0 0 0
173 1 1.4717116589928843e+01 -1.2524034322311662e+02 2.2547892930959352e+00 0 0 0
136 1 1.6132614915587340e+01 -1.2637877529665353e+02 4.4728921880448097e-01 0 0 0
137 1 1.7548155594985076e+01 -1.2753061200999103e+02 2.2547891374713545e+00 0 0 0
139 1 1.8675630657766295e+01 -1.2613396823855784e+02 4.4728923837708895e-01 0 0 0
142 1 1.7262878118511605e+01 -1.2498633708064102e+02 2.2547893030338577e+00 0 0 0
104 1 2.1209920829467631e+01 -1.2585131518499226e+02 4.4728928709484395e-01 0 0 0
105 1 2.2616447601343054e+01 -1.2696428713628404e+02 2.2547892227924109e+00 0 0 0
106 1 2.0085696848763234e+01 -1.2727824477662638e+02 2.2547891618545575e+00 0 0 0
110 1 2.2336382048930680e+01 -1.2442135182542101e+02 2.2547893797537224e+00 0 0 0
141 1 1.9801594666890750e+01 -1.2472243947735798e+02 2.2547893449275929e+00 0 0 0
108 1 3.1809540615901111e-01 -1.2299767664379551e+02 4.4728946747962534e-01 0 0 0
111 1 2.8613330348600212e+00 -1.2270918690196545e+02 4.4728947211189291e-01 0 0 0
114 1 1.4485469310537771e+00 -1.2158294249409965e+02 2.2547895250261694e+00 0 0 0
147 1 3.7106530151801355e-02 -1.2046075274775104e+02 4.4728956565026345e-01 0 0 0
76 1 5.4051228562103875e+00 -1.2244375092663665e+02 4.4728946886142373e-01 0 0 0
77 1 6.8173801950541586e+00 -1.2358417089805022e+02 2.2547893983996179e+00 0 0 0
78 1 4.2752230203563490e+00 -1.2384346073299811e+02 2.2547894086667548e+00 0 0 0
82 1 6.5336814130898357e+00 -1.2103810511456065e+02 2.2547895195926495e+00 0 0 0
113 1 3.9920940211641853e+00 -1.2130640152375712e+02 2.2547895301679870e+00 0 0 0
50 1 1.0481727644376814e+01 -1.2187942540456842e+02 4.4728946448064560e-01 0 0 0
52 1 9.3541607753701754e+00 -1.2330176332600203e+02 2.2547893938958299e+00 0 0 0
79 1 7.9445949704417984e+00 -1.2217278556172423e+02 4.4728945668822628e-01 0 0 0
81 1 9.0719810021681244e+00 -1.2075590590332037e+02 2.2547895124668038e+00 0 0 0
31 1 1.4434980023737895e+01 -1.2270918689428231e+02 2.2547894239744641e+00 0 0 0
51 1 1.1891742414058774e+01 -1.2299767664922832e+02 2.2547894094051433e+00 0 0 0
53 1 1.3022193936222598e+01 -1.2158294248373817e+02 4.4728947200144803e-01 0 0 0
56 1 1.1610753533498915e+01 -1.2046075274375129e+02 2.2547895140881882e+00 0 0 0
140 1 1.8391027186262338e+01 -1.2358417088618718e+02 4.4728940308315129e-01 0 0 0
174 1 1.5848870008123795e+01 -1.2384346071900559e+02 4.4728937313263190e-01 0 0 0
175 1 1.5565741006139847e+01 -1.2130640150600972e+02 4.4728949913993926e-01 0 0 0
176 1 1.6978769844490476e+01 -1.2244375090974195e+02 2.2547894581107051e+00 0 0 0
177 1 1.8107328401617092e+01 -1.2103810509837572e+02 4.4728951759362390e-01 0 0 0
143 1 2.0927807778585787e+01 -1.2330176331189683e+02 4.4728943314533137e-01 0 0 0
144 1 2.0645627997846834e+01 -1.2075590589933019e+02 4.4728954938324705e-01 0 0 0
145 1 2.2055374645045841e+01 -1.2187942540033782e+02 2.2547895124229558e+00 0 0 0
146 1 1.9518241962186789e+01 -1.2217278555035443e+02 2.2547894805803348e+00 0 0 0
112 1 2.5791871022988442e+00 -1.2017443150816781e+02 4.4728957795549024e-01 0 0 0
118 1 3.7093146557569128e+00 -1.1876813191362233e+02 2.2547896090223820e+00 0 0 0
149 1 1.1669818048656369e+00 -1.1904723381111035e+02 2.2547896142559067e+00 0 0 0
151 1 2.2970005604966079e+00 -1.1763743868682778e+02 4.4728963737075150e-01 0 0 0
154 1 8.8512279355826795e-01 -1.1650957506452002e+02 2.2547896611695570e+00 0 0 0
80 1 7.6616600651574913e+00 -1.1962681906548468e+02 4.4728956198409869e-01 0 0 0
115 1 5.1217282027125748e+00 -1.1990213649193363e+02 4.4728956888137111e-01 0 0 0
116 1 4.8387654948069265e+00 -1.1736106264309720e+02 4.4728963599626759e-01 0 0 0
117 1 6.2505281175171694e+00 -1.1849431065590100e+02 2.2547895986656692e+00 0 0 0
119 1 7.3789673055909564e+00 -1.1708306358100157e+02 4.4728962751145102e-01 0 0 0
83 1 1.0200174688256464e+01 -1.1933804355360117e+02 4.4728956021772348e-01 0 0 0
84 1 9.9183023265471331e+00 -1.1679698976100433e+02 4.4728962178213283e-01 0 0 0
85 1 1.1329219519881590e+01 -1.1792230520039476e+02 2.2547895970401712e+00 0 0 0
86 1 8.7897420831587034e+00 -1.1821221015961439e+02 2.2547895981020272e+00 0 0 0
54 1 1.2740628806757949e+01 -1.1904723379226898e+02 4.4728956632850175e-01 0 0 0
55 1 1.4152834103969614e+01 -1.2017443148769465e+02 2.2547895325917828e+00 0 0 0
57 1 1.3870647558970742e+01 -1.1763743866075868e+02 2.2547895949309713e+00 0 0 0
87 1 1.2458769790755028e+01 -1.1650957502414828e+02 4.4728961768991876e-01 0 0 0
204 1 1.5282961653235011e+01 -1.1876813188671913e+02 4.4728957399825159e-01 0 0 0
178 1 1.7824175110241509e+01 -1.1849431064217880e+02 4.4728959560459258e-01 0 0 0
179 1 1.9235307063257743e+01 -1.1962681905255391e+02 2.2547895728652061e+00 0 0 0
180 1 1.6695375186307320e+01 -1.1990213647582877e+02 2.2547895454603286e+00 0 0 0
184 1 1.8952614299874057e+01 -1.1708306357860654e+02 2.2547896311126707e+00 0 0 0
206 1 1.6412412488971938e+01 -1.1736106262248069e+02 2.2547896103586167e+00 0 0 0
148 1 2.2902866520837115e+01 -1.1792230521793832e+02 4.4728963789895942e-01 0 0 0
150 1 2.1773821688115124e+01 -1.1933804355784419e+02 2.2547895989028635e+00 0 0 0
181 1 2.0363389089594229e+01 -1.1821221015430099e+02 4.4728961666077716e-01 0 0 0
183 1 2.1491949330519432e+01 -1.1679698977587766e+02 2.2547896488341075e+00 0 0 0
152 1 2.0147728119056163e+00 -1.1509907703479934e+02 4.4728967984533535e-01 0 0 0
153 1 3.4267327374548651e+00 -1.1622906005322210e+02 2.2547896640931708e+00 0 0 0
158 1 3.1442612250197346e+00 -1.1368947174479162e+02 2.2547896839478399e+00 0 0 0
187 1 6.0308143285075178e-01 -1.1397077050133207e+02 2.2547896815477997e+00 0 0 0
120 1 7.0964178185480744e+00 -1.1454063350969629e+02 4.4728966076312004e-01 0 0 0
122 1 5.9677039886128993e+00 -1.1595188003509524e+02 2.2547896574588484e+00 0 0 0
155 1 4.5560610086713638e+00 -1.1482028415995289e+02 4.4728967587332236e-01 0 0 0
157 1 5.6850775460761902e+00 -1.1341026091635207e+02 2.2547896686953028e+00 0 0 0
90 1 1.1047363589665496e+01 -1.1538299585554536e+02 2.2547896358823474e+00 0 0 0
121 1 8.5074637077358020e+00 -1.1566979966315476e+02 2.2547896442171402e+00 0 0 0
123 1 9.6362418806027623e+00 -1.1425614431028878e+02 4.4728964860429965e-01 0 0 0
125 1 1.0765317124503580e+01 -1.1284319611596683e+02 2.2547896466346335e+00 0 0 0
126 1 8.2251616545766417e+00 -1.1312816055562770e+02 2.2547896574479820e+00 0 0 0
88 1 1.2176728432352997e+01 -1.1397077044147690e+02 4.4728964001803012e-01 0 0 0
89 1 1.3588419810164599e+01 -1.1509907698915873e+02 2.2547896303365644e+00 0 0 0
205 1 1.5000379731783148e+01 -1.1622906001961455e+02 4.4728961958401514e-01 0 0 0
227 1 1.4717908219387866e+01 -1.1368947168782827e+02 4.4728963940295352e-01 0 0 0
207 1 1.7541350979622422e+01 -1.1595188001542223e+02 4.4728963493501728e-01 0 0 0
208 1 1.7258724532035867e+01 -1.1341026089047341e+02 4.4728964216585587e-01 0 0 0
209 1 1.8670064805299845e+01 -1.1454063350381793e+02 2.2547896445850664e+00 0 0 0
210 1 1.6129707997771366e+01 -1.1482028412835004e+02 2.2547896336645676e+00 0 0 0
182 1 2.0081110705181473e+01 -1.1566979967265495e+02 4.4728965309275087e-01 0 0 0
185 1 2.2621010592188995e+01 -1.1538299589377630e+02 4.4728966990833019e-01 0 0 0
186 1 2.2338964126148579e+01 -1.1284319617265258e+02 4.4728967167257400e-01 0 0 0
188 1 2.1209888875460411e+01 -1.1425614434571881e+02 2.2547896704315620e+00 0 0 0
211 1 1.9798808641819804e+01 -1.1312816056945080e+02 4.4728966106369078e-01 0 0 0
189 1 1.7325125250959861e+00 -1.1255988420313847e+02 4.4728968217797183e-01 0 0 0
190 1 1.4502300200889149e+00 -1.1002018939748582e+02 4.4728966105626516e-01 0 0 0
191 1 2.8618528259594744e+00 -1.1114955608576831e+02 2.2547896721215293e+00 0 0 0
192 1 3.2092810502257196e-01 -1.1143129073444872e+02 2.2547896713287203e+00 0 0 0
156 1 4.2735102968873981e+00 -1.1227966367935073e+02 4.4728967319564639e-01 0 0 0
159 1 6.8139547462044758e+00 -1.1199899715269014e+02 4.4728966159347355e-01 0 0 0
160 1 6.5315448299892225e+00 -1.0945783559837274e+02 4.4728964229105461e-01 0 0 0
162 1 5.4025706511152825e+00 -1.1086912139845164e+02 2.2547896655374342e+00 0 0 0
193 1 3.9910517783550374e+00 -1.0973912597327192e+02 4.4728966047077007e-01 0 0 0
124 1 9.3540711056569013e+00 -1.1171543477874587e+02 4.4728964837074914e-01 0 0 0
130 1 1.0483157368088914e+01 -1.1030311581588742e+02 2.2547896342433260e+00 0 0 0
161 1 7.9428466376778655e+00 -1.1058698758618002e+02 2.2547896468178967e+00 0 0 0
163 1 9.0718364408549981e+00 -1.0917481469525944e+02 4.4728962676978384e-01 0 0 0
91 1 1.4435499823911069e+01 -1.1114955601891458e+02 4.4728963513822495e-01 0 0 0
92 1 1.3306159519133100e+01 -1.1255988413402935e+02 2.2547896402043408e+00 0 0 0
127 1 1.1894575103941042e+01 -1.1143129065883251e+02 4.4728963998513144e-01 0 0 0
129 1 1.3023877009538896e+01 -1.1002018931887655e+02 2.2547896295546810e+00 0 0 0
214 1 1.8387601730153918e+01 -1.1199899714356752e+02 2.2547896520066302e+00 0 0 0
228 1 1.5847157287605906e+01 -1.1227966363466541e+02 2.2547896399074521e+00 0 0 0
229 1 1.6976217641857975e+01 -1.1086912136266977e+02 4.4728963867992400e-01 0 0 0
231 1 1.8105191817430278e+01 -1.0945783558547816e+02 2.2547896251719983e+00 0 0 0
232 1 1.5564698770930576e+01 -1.0973912591396522e+02 2.2547896235517424e+00 0 0 0
212 1 1.9516493625196361e+01 -1.1058698760108582e+02 4.4728964230461615e-01 0 0 0
213 1 2.0927718093812622e+01 -1.1171543482068786e+02 2.2547896578685047e+00 0 0 0
215 1 2.2056804363554161e+01 -1.1030311588201529e+02 4.4728965757078704e-01 0 0 0
218 1 2.0645483431491591e+01 -1.0917481474071921e+02 2.2547896384436212e+00 0 0 0
194 1 3.7086489102953522e+00 -1.0719863039594546e+02 4.4728961864349936e-01 0 0 0
196 1 2.5794814076843329e+00 -1.0860943510435419e+02 2.2547896458952588e+00 0 0 0
217 1 3.8707659129753214e-02 -1.0889141220388194e+02 2.2547896439382917e+00 0 0 0
219 1 1.1679339748820441e+00 -1.0748019186908047e+02 4.4728962487042123e-01 0 0 0
221 1 2.2971320534904893e+00 -1.0606918608885961e+02 2.2547896022606060e+00 0 0 0
166 1 7.6605266130540182e+00 -1.0804609706334372e+02 2.2547896251494248e+00 0 0 0
195 1 5.1201367295271769e+00 -1.0832826424633862e+02 2.2547896309421911e+00 0 0 0
197 1 6.2491693497277163e+00 -1.0691695830711015e+02 4.4728961447457194e-01 0 0 0
199 1 7.3782059075843991e+00 -1.0550537803295497e+02 2.2547895915672589e+00 0 0 0
200 1 4.8377484196146705e+00 -1.0578757326492479e+02 2.2547896086582320e+00 0 0 0
164 1 8.7895662561334529e+00 -1.0663425292708011e+02 4.4728960762061376e-01 0 0 0
165 1 1.0200932092131611e+01 -1.0776287470155266e+02 2.2547896106243503e+00 0 0 0
167 1 1.1330095173021791e+01 -1.0635129798339180e+02 4.4728958722636486e-01 0 0 0
170 1 9.9186690580587538e+00 -1.0522254143716464e+02 2.2547895820793586e+00 0 0 0
128 1 1.1612354652611414e+01 -1.0889141211797711e+02 4.4728962155069246e-01 0 0 0
131 1 1.4153128397836200e+01 -1.0860943502958409e+02 4.4728961337819023e-01 0 0 0
132 1 1.3870779041893288e+01 -1.0606918599831133e+02 4.4728958338141028e-01 0 0 0
133 1 1.2741580962409248e+01 -1.0748019177070395e+02 2.2547896011024955e+00 0 0 0
242 1 1.5282295897645644e+01 -1.0719863033092240e+02 2.2547895966362583e+00 0 0 0
230 1 1.6693783722638162e+01 -1.0832826421068658e+02 4.4728961135893408e-01 0 0 0
233 1 1.9234173601692291e+01 -1.0804609708282335e+02 4.4728961778487625e-01 0 0 0
234 1 1.8951852892563611e+01 -1.0550537804893247e+02 4.4728956886990301e-01 0 0 0
236 1 1.7822816336196908e+01 -1.0691695828778759e+02 2.2547895973010168e+00 0 0 0
243 1 1.6411395410268710e+01 -1.0578757322255464e+02 4.4728957327916952e-01 0 0 0
216 1 2.1774579096977327e+01 -1.0776287477790613e+02 4.4728961944839329e-01 0 0 0
222 1 2.2903742183095797e+01 -1.0635129808274314e+02 2.2547896021659115e+00 0 0 0
235 1 2.0363213244500781e+01 -1.0663425297952691e+02 2.2547895941332965e+00 0 0 0
237 1 2.1492316050978399e+01 -1.0522254152595615e+02 4.4728957505472255e-01 0 0 0
220 1 8.8563010148222754e-01 -1.0494001191865922e+02 4.4728958156352239e-01 0 0 0
223 1 3.4262806491427953e+00 -1.0465815668161153e+02 4.4728959063040374e-01 0 0 0
226 1 2.0147963790567447e+00 -1.0352885843070582e+02 2.2547895635376016e+00 0 0 0
241 1 6.0332137249444107e-01 -1.0239972260825103e+02 4.4728953261809284e-01 0 0 0
247 1 3.1439330694413030e+00 -1.0211769436637748e+02 4.4728953581554809e-01 0 0 0
198 1 5.9668163959340976e+00 -1.0437625123585937e+02 4.4728958228514681e-01 0 0 0
203 1 7.0958859742393017e+00 -1.0296476267441622e+02 2.2547895601590140e+00 0 0 0
225 1 4.5553888571734413e+00 -1.0324698037504014e+02 2.2547895599038026e+00 0 0 0
261 1 5.6844770973149057e+00 -1.0183564628212928e+02 4.4728954028063922e-01 0 0 0
168 1 1.1047812829848770e+01 -1.0381104451577227e+02 4.4728955943099896e-01 0 0 0
201 1 8.5072764032617751e+00 -1.0409372888947919e+02 4.4728956701696354e-01 0 0 0
202 1 9.6363840014408950e+00 -1.0268215499341974e+02 2.2547895464461969e+00 0 0 0
251 1 8.2249741332880824e+00 -1.0155322910284846e+02 4.4728953924844039e-01 0 0 0
169 1 1.2459277089399199e+01 -1.0494001181225867e+02 2.2547895664612359e+00 0 0 0
171 1 1.3588443368799782e+01 -1.0352885833475476e+02 4.4728954028863127e-01 0 0 0
172 1 1.2176968369445680e+01 -1.0239972249472254e+02 2.2547895283959263e+00 0 0 0
246 1 1.4999927642195075e+01 -1.0465815659911831e+02 2.2547895562611928e+00 0 0 0
248 1 1.4717580059350219e+01 -1.0211769427873571e+02 2.2547895165953200e+00 0 0 0
224 1 1.8669532959703098e+01 -1.0296476269007039e+02 4.4728951914754322e-01 0 0 0
244 1 1.6129035852274573e+01 -1.0324698031879234e+02 4.4728952645250930e-01 0 0 0
245 1 1.7540463384697048e+01 -1.0437625121215115e+02 2.2547895434482732e+00 0 0 0
307 1 1.7258124093189302e+01 -1.0183564625062044e+02 2.2547895010011145e+00 0 0 0
238 1 2.1210031000706788e+01 -1.0268215507243787e+02 4.4728952118018139e-01 0 0 0
239 1 2.2621459831063152e+01 -1.0381104462008237e+02 2.2547895542106740e+00 0 0 0
240 1 2.0080923393330856e+01 -1.0409372893402033e+02 2.2547895480098403e+00 0 0 0
306 1 1.9798621126571518e+01 -1.0155322914550720e+02 2.2547894919798193e+00 0 0 0
279 1 3.2100712641407803e-01 -9.9859366885287216e+01 4.4728947898241178e-01 0 0 0
280 1 1.7324673735390814e+00 -1.0098848180414406e+02 2.2547895111823903e+00 0 0 0
282 1 2.8615949691464388e+00 -9.9577237567896859e+01 4.4728949360524178e-01 0 0 0
285 1 1.4501393647588199e+00 -9.8448075227053280e+01 2.2547894594421001e+00 0 0 0
262 1 5.4021431267561359e+00 -9.9295102139967284e+01 4.4728949431681841e-01 0 0 0
263 1 6.8135644843900520e+00 -1.0042421063722054e+02 2.2547895172823704e+00 0 0 0
264 1 4.2730446388029115e+00 -1.0070644531026309e+02 2.2547895201774786e+00 0 0 0
268 1 6.5312401997050484e+00 -9.7883697177993326e+01 2.2547894694623953e+00 0 0 0
284 1 3.9907072264566796e+00 -9.8165944050639325e+01 2.2547894611442887e+00 0 0 0
252 1 1.0765515721420307e+01 -1.0127070848549690e+02 4.4728952119555992e-01 0 0 0
253 1 1.0483207259942594e+01 -9.8730323589348870e+01 4.4728948115271133e-01 0 0 0
255 1 9.3540834486179065e+00 -1.0014173855529366e+02 2.2547895117406562e+00 0 0 0
265 1 7.9426620792818845e+00 -9.9012745970331594e+01 4.4728948962724335e-01 0 0 0
249 1 1.3306114364730821e+01 -1.0098848169918003e+02 4.4728950295272180e-01 0 0 0
250 1 1.4435241969380412e+01 -9.9577237472491134e+01 2.2547894737932164e+00 0 0 0
254 1 1.1894654118098938e+01 -9.9859366777072253e+01 2.2547894949056877e+00 0 0 0
256 1 1.3023786356237942e+01 -9.8448075126580193e+01 4.4728946504305767e-01 0 0 0
305 1 1.8387211482665730e+01 -1.0042421064284694e+02 4.4728946978125883e-01 0 0 0
340 1 1.5846691630928996e+01 -1.0070644525642000e+02 4.4728948631129933e-01 0 0 0
341 1 1.5564354222374840e+01 -9.8165943986776483e+01 4.4728944331817999e-01 0 0 0
342 1 1.6975790122911871e+01 -9.9295102111032136e+01 2.2547894523134673e+00 0 0 0
343 1 1.8104887196477922e+01 -9.7883697188267291e+01 4.4728942692492291e-01 0 0 0
281 1 2.2339162727010269e+01 -1.0127070857902582e+02 2.2547894981664069e+00 0 0 0
308 1 2.0927730449252433e+01 -1.0014173863459696e+02 4.4728947002177161e-01 0 0 0
310 1 2.2056854266091410e+01 -9.8730323682555607e+01 2.2547894479837916e+00 0 0 0
311 1 1.9516309085762082e+01 -9.9012746005498954e+01 2.2547894468088368e+00 0 0 0
283 1 2.5792604787582274e+00 -9.7036783026522173e+01 4.4728942747183964e-01 0 0 0
289 1 3.7083725659461533e+00 -9.5625462531408914e+01 2.2547894134381057e+00 0 0 0
312 1 3.8687491129536032e-02 -9.7318971684295050e+01 4.4728942378391734e-01 0 0 0
314 1 1.1678112730215284e+00 -9.5907650193443260e+01 2.2547893936089429e+00 0 0 0
316 1 2.2969295411084905e+00 -9.4496329347357744e+01 4.4728937564437582e-01 0 0 0
266 1 7.6603433900917439e+00 -9.6472274046915530e+01 4.4728944193015074e-01 0 0 0
286 1 5.1198107396722063e+00 -9.6754594781810113e+01 4.4728943941541371e-01 0 0 0
287 1 4.8374806504541690e+00 -9.4214108703810211e+01 4.4728937914940176e-01 0 0 0
288 1 6.2489138687436521e+00 -9.5343207590183042e+01 2.2547894073946355e+00 0 0 0
267 1 9.0717723863951178e+00 -9.7601306008985262e+01 2.2547894615764226e+00 0 0 0
269 1 1.0200890650764080e+01 -9.6189910296377661e+01 4.4728943504671553e-01 0 0 0
271 1 1.1330012186471063e+01 -9.4778552576323577e+01 2.2547893979141653e+00 0 0 0
272 1 8.7894541488469873e+00 -9.5060864103449347e+01 2.2547894131470159e+00 0 0 0
257 1 1.2741458271862996e+01 -9.5907650092135626e+01 4.4728941875398487e-01 0 0 0
258 1 1.4152907473333137e+01 -9.7036782933510906e+01 2.2547894331742846e+00 0 0 0
259 1 1.1612334490093803e+01 -9.7318971577158450e+01 2.2547894514276021e+00 0 0 0
260 1 1.3870576548361443e+01 -9.4496329252656750e+01 2.2547893865383251e+00 0 0 0
380 1 1.5282019560523427e+01 -9.5625462472095904e+01 4.4728940363199854e-01 0 0 0
344 1 1.7822560871971117e+01 -9.5343207584788857e+01 4.4728937600557822e-01 0 0 0
345 1 1.9233990396446327e+01 -9.6472274079878829e+01 2.2547893911937646e+00 0 0 0
346 1 1.6693457741689048e+01 -9.6754594745653606e+01 2.2547894183269936e+00 0 0 0
382 1 1.6411127653077045e+01 -9.4214108670036410e+01 2.2547893562767127e+00 0 0 0
309 1 2.0645419392038555e+01 -9.7601306073227732e+01 4.4728941880578726e-01 0 0 0
313 1 2.2903659188983060e+01 -9.4778552662482767e+01 4.4728936099868383e-01 0 0 0
315 1 2.1774537660337582e+01 -9.6189910371939604e+01 2.2547893927070546e+00 0 0 0
347 1 2.0363101149997487e+01 -9.5060864160044105e+01 4.4728936179955275e-01 0 0 0
317 1 2.0146028773811184e+00 -9.1955875329957237e+01 4.4728929118253463e-01 0 0 0
318 1 3.4260431976408485e+00 -9.3084991890908753e+01 2.2547893335033788e+00 0 0 0
319 1 8.8548526998222421e-01 -9.3367213637915015e+01 2.2547893400697472e+00 0 0 0
323 1 3.1437177768070343e+00 -9.0544528038622460e+01 2.2547892651191486e+00 0 0 0
353 1 6.0316093237527935e-01 -9.0826769905751050e+01 2.2547892401313980e+00 0 0 0
290 1 7.3780213452446084e+00 -9.3931808720046959e+01 4.4728937541838282e-01 0 0 0
291 1 7.0956996924688376e+00 -9.1391346780955075e+01 4.4728931438336322e-01 0 0 0
293 1 5.9665890621504500e+00 -9.2802731636434331e+01 2.2547893525913203e+00 0 0 0
320 1 4.5551550970137766e+00 -9.1673634643243673e+01 4.4728930259823790e-01 0 0 0
322 1 5.6842660027745255e+00 -9.0262263330295880e+01 2.2547892620554579e+00 0 0 0
270 1 9.9185706814067522e+00 -9.3649480133439937e+01 4.4728937729929769e-01 0 0 0
276 1 1.1047689670566564e+01 -9.2238119168016567e+01 2.2547893441256757e+00 0 0 0
292 1 8.5071339504953478e+00 -9.2520416571941965e+01 2.2547893390247671e+00 0 0 0
294 1 9.6362497726124463e+00 -9.1109039760122883e+01 4.4728930588376759e-01 0 0 0
273 1 1.2459132269460655e+01 -9.3367213557193949e+01 4.4728936585727846e-01 0 0 0
274 1 1.2176807931651112e+01 -9.0826769836991730e+01 4.4728929156286085e-01 0 0 0
275 1 1.3588249886648015e+01 -9.1955875257112055e+01 2.2547893148251745e+00 0 0 0
381 1 1.4999690204364388e+01 -9.3084991828613212e+01 4.4728933971189033e-01 0 0 0
419 1 1.4717364779327694e+01 -9.0544527984357259e+01 4.4728927005153407e-01 0 0 0
350 1 1.8951668358331602e+01 -9.3931808736395567e+01 2.2547893434139796e+00 0 0 0
383 1 1.7540236066992932e+01 -9.2802731635222287e+01 4.4728931606637995e-01 0 0 0
384 1 1.7257913016153729e+01 -9.0262263312215680e+01 4.4728923324652786e-01 0 0 0
385 1 1.8669346708383333e+01 -9.1391346793690488e+01 2.2547892574065522e+00 0 0 0
386 1 1.6128802112634759e+01 -9.1673634599377550e+01 2.2547892991604988e+00 0 0 0
348 1 2.0080780961395046e+01 -9.2520416607365135e+01 4.4728929407112716e-01 0 0 0
349 1 2.1492217690266138e+01 -9.3649480196157015e+01 2.2547893245556123e+00 0 0 0
351 1 2.2621336667785528e+01 -9.2238119240924462e+01 4.4728929084902252e-01 0 0 0
354 1 2.1209896786567448e+01 -9.1109039803453413e+01 2.2547892523658812e+00 0 0 0
355 1 1.7322784280835199e+00 -8.9415421617214321e+01 4.4728920445886772e-01 0 0 0
356 1 1.4499544406192273e+00 -8.6874967918859738e+01 4.4728907937059392e-01 0 0 0
357 1 2.8613936030872362e+00 -8.8004067991321648e+01 2.2547891436080034e+00 0 0 0
358 1 3.2083873561432086e-01 -8.8286321980440704e+01 2.2547891485545146e+00 0 0 0
321 1 4.2728310007501822e+00 -8.9133168192960980e+01 4.4728921466775151e-01 0 0 0
324 1 6.8133786256308166e+00 -8.8850887048324950e+01 4.4728921554427487e-01 0 0 0
327 1 5.4019435869148102e+00 -8.7721800017151978e+01 2.2547891643823776e+00 0 0 0
359 1 3.9905065521608218e+00 -8.6592706412531726e+01 4.4728909005236045e-01 0 0 0
295 1 9.3539296103263521e+00 -8.8568593688178723e+01 4.4728921202777344e-01 0 0 0
296 1 1.0765367514782278e+01 -8.9697677164278261e+01 2.2547892536036334e+00 0 0 0
297 1 8.2248134213020574e+00 -8.9979965670572241e+01 2.2547892717148637e+00 0 0 0
301 1 1.0483046138784678e+01 -8.7157230344711337e+01 2.2547891480923652e+00 0 0 0
326 1 7.9424928241053729e+00 -8.7439513276132942e+01 2.2547891548216370e+00 0 0 0