LAMMPS data file via write_data, version 15 May 2015, timestep = 1475

1624 atoms
5 atom types

0.0000000000000000e+00 1.9467371000000000e+01 xlo xhi
-1.3655390741309188e+02 1.3655390741309188e+02 ylo yhi
0.0000000000000000e+00 3.6150000000000002e+00 zlo zhi

Atoms # atomic

4 1 1.7304535879846439e+00 -1.3655387727122465e+02 1.3556250030787345e+00 0 0 0
6 1 2.9429250982371871e+00 -1.3318336086432245e+02 1.3556250030787840e+00 0 0 0
8 1 2.3159922606652272e+00 -1.3496629625461443e+02 3.1631250030787701e+00 0 0 0
21 1 6.4145764044201925e-01 -1.3434258967279592e+02 1.3556250030787729e+00 0 0 0
1 1 6.2994056869837944e+00 -1.3439882448664889e+02 1.3556250030787851e+00 0 0 0
2 1 5.4594167675326117e+00 -1.3655387727122647e+02 3.1631250030787328e+00 0 0 0
3 1 7.0396279508147481e+00 -1.3286042582643910e+02 3.1631250030787843e+00 0 0 0
5 1 4.0247488514547269e+00 -1.3538738437121049e+02 1.3556250030787855e+00 0 0 0
7 1 4.6557484067944657e+00 -1.3382485893109660e+02 3.1631250030787914e+00 0 0 0
122 1 7.1690487237383715e+00 -1.3655387727122550e+02 1.3556250030787347e+00 0 0 0
82 1 1.1464139087984805e+01 -1.3655387727122456e+02 3.1631250030787261e+00 0 0 0
86 1 1.0375143140441704e+01 -1.3434258967279632e+02 3.1631250030787599e+00 0 0 0
123 1 8.0745623174927719e+00 -1.3524140725195693e+02 3.1631250030787590e+00 0 0 0
124 1 8.7343014130951993e+00 -1.3365528552896251e+02 1.3556250030787598e+00 0 0 0
81 1 9.6876168506754823e+00 -1.3655387727122638e+02 1.3556250030787362e+00 0 1 0
44 1 1.5193102267533034e+01 -1.3655387727122454e+02 1.3556250030787260e+00 0 0 0
45 1 1.4389433906794391e+01 -1.3382485893109620e+02 1.3556250030787602e+00 0 0 0
47 1 1.3758434351455032e+01 -1.3538738437120929e+02 3.1631250030787545e+00 0 0 0
83 1 1.2049677760664675e+01 -1.3496629625461406e+02 1.3556250030787509e+00 0 0 0
85 1 1.2676610598236934e+01 -1.3318336086432191e+02 3.1631250030787501e+00 0 0 0
18 1 1.7808247817492674e+01 -1.3524140725195610e+02 1.3556250030787489e+00 0 0 0
19 1 1.9421302350675752e+01 -1.3655387727122422e+02 3.1631250030787350e+00 0 0 0
20 1 1.6902734223739085e+01 -1.3655387727122428e+02 3.1631250030787266e+00 0 0 0
24 1 1.8467986913095455e+01 -1.3365528552896177e+02 3.1631250030787657e+00 0 0 0
46 1 1.6033091186983658e+01 -1.3439882448664790e+02 3.1631250030787594e+00 0 0 0
48 1 1.6773313450814666e+01 -1.3286042582643864e+02 1.3556250030787544e+00 0 0 0
12 1 3.6281018903650137e+00 -1.3150684042168632e+02 3.1631250030787688e+00 0 0 0
23 1 1.3014733676434060e+00 -1.3259595508774964e+02 3.1631250030787772e+00 0 0 0
25 1 1.9608710027034026e+00 -1.3086071469454509e+02 1.3556250030787547e+00 0 0 0
27 1 2.6331176557511071e+00 -1.2917160139004204e+02 3.1631250030787381e+00 0 0 0
28 1 3.0095977783656624e-01 -1.3022463644600222e+02 3.1631250030787448e+00 0 0 0
9 1 5.3035611629017865e+00 -1.3214187483234033e+02 1.3556250030787769e+00 0 0 0
10 1 4.3094859413693705e+00 -1.2983046162616762e+02 1.3556250030787544e+00 0 0 0
11 1 6.0050990404780640e+00 -1.3052283773520398e+02 3.1631250030787621e+00 0 0 0
125 1 7.7047161285801149e+00 -1.3124246821109779e+02 1.3556250030787647e+00 0 0 0
84 1 1.1035158867642897e+01 -1.3259595508774967e+02 1.3556250030787504e+00 0 0 0
126 1 9.3853188900111366e+00 -1.3193727605969843e+02 3.1631250030787457e+00 0 0 0
127 1 1.0034645277836256e+01 -1.3022463644600285e+02 1.3556250030787298e+00 0 0 0
130 1 8.3641685987819798e+00 -1.2956117422603791e+02 3.1631250030787297e+00 0 0 0
51 1 1.5037246662901966e+01 -1.3214187483234005e+02 3.1631250030787443e+00 0 0 0
87 1 1.3361787390364483e+01 -1.3150684042168635e+02 1.3556250030787382e+00 0 0 0
88 1 1.2366803155750835e+01 -1.2917160139004221e+02 1.3556250030787014e+00 0 0 0
89 1 1.4043171441369056e+01 -1.2983046162616725e+02 3.1631250030787070e+00 0 0 0
90 1 1.1694556502703259e+01 -1.3086071469454512e+02 3.1631250030787288e+00 0 0 0
22 1 1.9119004390011209e+01 -1.3193727605969818e+02 1.3556250030787667e+00 0 0 0
49 1 1.5738784540477893e+01 -1.3052283773520372e+02 1.3556250030787287e+00 0 0 0
50 1 1.7438401628580138e+01 -1.3124246821109736e+02 3.1631250030787452e+00 0 0 0
52 1 1.8097854098781905e+01 -1.2956117422603737e+02 1.3556250030787271e+00 0 0 0
26 1 9.6117301742773564e-01 -1.2851961416224708e+02 1.3556250030787140e+00 0 0 0
29 1 3.3094051773492947e+00 -1.2749728711988449e+02 1.3556250030787085e+00 0 0 0
32 1 1.6312309394529378e+00 -1.2683285075849707e+02 3.1631250030786959e+00 0 0 0
13 1 6.6826984719614266e+00 -1.2887304907934254e+02 1.3556250030787305e+00 0 0 0
14 1 5.6704288361357040e+00 -1.2651451291693563e+02 1.3556250030786776e+00 0 0 0
15 1 4.9950073446808361e+00 -1.2817768631270238e+02 3.1631250030787204e+00 0 0 0
31 1 3.9869713558356272e+00 -1.2583151488561667e+02 3.1631250030786688e+00 0 0 0
160 1 7.3508298864867925e+00 -1.2719631449709036e+02 3.1631250030786924e+00 0 0 0
128 1 9.0250474419381579e+00 -1.2786572156494995e+02 1.3556250030786943e+00 0 0 0
129 1 1.0694858517427692e+01 -1.2851961416224719e+02 3.1631250030786955e+00 0 0 0
131 1 1.1364916439452804e+01 -1.2683285075849737e+02 1.3556250030786576e+00 0 0 0
134 1 9.6906964016803645e+00 -1.2617310628711401e+02 3.1631250030786502e+00 0 0 0
161 1 8.0170477233964910e+00 -1.2551005927646030e+02 1.3556250030786556e+00 0 0 0
91 1 1.4728692844680596e+01 -1.2817768631270246e+02 1.3556250030786834e+00 0 0 0
92 1 1.3720656855835554e+01 -1.2583151488561666e+02 1.3556250030786512e+00 0 0 0
93 1 1.5404114336135876e+01 -1.2651451291693560e+02 3.1631250030786680e+00 0 0 0
94 1 1.3043090677349236e+01 -1.2749728711988483e+02 3.1631250030786702e+00 0 0 0
53 1 1.7084515386486995e+01 -1.2719631449708990e+02 1.3556250030786856e+00 0 0 0
54 1 1.8758732941938206e+01 -1.2786572156494954e+02 3.1631250030787004e+00 0 0 0
55 1 1.6416383971961384e+01 -1.2887304907934225e+02 3.1631250030787057e+00 0 0 0
56 1 1.9424381901680629e+01 -1.2617310628711390e+02 1.3556250030786809e+00 0 0 0
59 1 1.7750733223396661e+01 -1.2551005927645988e+02 3.1631250030786697e+00 0 0 0
30 1 2.3052535840971129e+00 -1.2515648505549073e+02 1.3556250030786732e+00 0 0 0
34 1 3.6524434206651111e+00 -1.2181046363777216e+02 1.3556250030786448e+00 0 0 0
36 1 2.9797222517654012e+00 -1.2348433852334333e+02 3.1631250030786497e+00 0 0 0
58 1 6.2729910327803984e-01 -1.2448923612919083e+02 3.1631250030786693e+00 0 0 0
60 1 1.2998946161608806e+00 -1.2281158221166862e+02 1.3556250030786621e+00 0 0 0
16 1 7.0092460069590423e+00 -1.2315693592766380e+02 1.3556250030786248e+00 0 0 0
17 1 6.3405165117227709e+00 -1.2483864750606449e+02 3.1631250030786502e+00 0 0 0
33 1 4.6607084889321362e+00 -1.2416139383080531e+02 1.3556250030786561e+00 0 0 0
35 1 5.3316617862395237e+00 -1.2248506287978996e+02 3.1631250030786284e+00 0 0 0
166 1 7.6787732969447955e+00 -1.2147487141475457e+02 3.1631250030786191e+00 0 0 0
132 1 1.0360984603277801e+01 -1.2448923612919117e+02 1.3556250030786292e+00 0 0 0
138 1 1.1033580116160666e+01 -1.2281158221166912e+02 3.1631250030786284e+00 0 0 0
162 1 8.6851582249190571e+00 -1.2382431845227420e+02 3.1631250030786311e+00 0 0 0
163 1 9.3556553062289023e+00 -1.2214273496601434e+02 1.3556250030786166e+00 0 0 0
96 1 1.5065347286239183e+01 -1.2248506287979011e+02 1.3556250030786490e+00 0 0 0
98 1 1.4394393988932176e+01 -1.2416139383080544e+02 3.1631250030786404e+00 0 0 0
133 1 1.2038939084096913e+01 -1.2515648505549098e+02 3.1631250030786453e+00 0 0 0
135 1 1.2713407751765171e+01 -1.2348433852334362e+02 1.3556250030786319e+00 0 0 0
137 1 1.3386128920664930e+01 -1.2181046363777230e+02 3.1631250030786298e+00 0 0 0
57 1 1.8418843724919086e+01 -1.2382431845227404e+02 1.3556250030786667e+00 0 0 0
63 1 1.9089340806228808e+01 -1.2214273496601416e+02 3.1631250030786626e+00 0 0 0
95 1 1.6074202011722967e+01 -1.2483864750606450e+02 1.3556250030786539e+00 0 0 0
97 1 1.6742931506958907e+01 -1.2315693592766361e+02 3.1631250030786551e+00 0 0 0
99 1 1.7412458796944716e+01 -1.2147487141475442e+02 1.3556250030786674e+00 0 0 0
61 1 2.9381107734107548e-01 -1.2046456457094246e+02 1.3556250030786541e+00 0 0 0
62 1 1.9727779706338451e+00 -1.2113634037907539e+02 3.1631250030786537e+00 0 0 0
64 1 2.6448636906745864e+00 -1.1946046388366865e+02 1.3556250030786472e+00 0 0 0
66 1 3.3161855602289170e+00 -1.1778310102205492e+02 3.1631250030786502e+00 0 0 0
67 1 9.6588724766269218e-01 -1.1878780424900515e+02 3.1631250030786644e+00 0 0 0
37 1 6.0017016733757824e+00 -1.2080539902602899e+02 1.3556250030786225e+00 0 0 0
38 1 4.9943669781669087e+00 -1.1845479805599197e+02 1.3556250030786292e+00 0 0 0
39 1 6.6720291165192922e+00 -1.1912525876073954e+02 3.1631250030786244e+00 0 0 0
40 1 4.3236897614206571e+00 -1.2013355159205244e+02 3.1631250030786306e+00 0 0 0
164 1 8.3495169518730723e+00 -1.1979473898173759e+02 1.3556250030786237e+00 0 0 0
165 1 1.0027496577341198e+01 -1.2046456457094276e+02 3.1631250030786284e+00 0 0 0
167 1 1.0699572747662845e+01 -1.1878780424900526e+02 1.3556250030786379e+00 0 0 0
170 1 9.0210109733086465e+00 -1.1811641940550203e+02 3.1631250030786289e+00 0 0 0
136 1 1.1706463470633794e+01 -1.2113634037907559e+02 1.3556250030786277e+00 0 0 0
139 1 1.4057375261420418e+01 -1.2013355159205248e+02 1.3556250030786492e+00 0 0 0
140 1 1.3049871060228785e+01 -1.1778310102205496e+02 1.3556250030786683e+00 0 0 0
141 1 1.4728052478166795e+01 -1.1845479805599216e+02 3.1631250030786737e+00 0 0 0
142 1 1.2378549190674411e+01 -1.1946046388366885e+02 3.1631250030786462e+00 0 0 0
100 1 1.6405714616519155e+01 -1.1912525876073958e+02 1.3556250030786767e+00 0 0 0
101 1 1.8083202451872928e+01 -1.1979473898173741e+02 3.1631250030786675e+00 0 0 0
102 1 1.5735387173375377e+01 -1.2080539902602897e+02 3.1631250030786568e+00 0 0 0
103 1 1.8754696473308556e+01 -1.1811641940550228e+02 1.3556250030786816e+00 0 0 0
65 1 1.6376055477457256e+00 -1.1711085491614287e+02 1.3556250030786734e+00 0 0 0
71 1 2.3089308575656262e+00 -1.1543318526530773e+02 3.1631250030786848e+00 0 0 0
107 1 6.3049892449767286e-01 -1.1476140063436695e+02 1.3556250030787209e+00 0 0 0
41 1 6.3361858261992001e+00 -1.1509689060710021e+02 1.3556250030786572e+00 0 0 0
42 1 5.6651288951396657e+00 -1.1677565316171264e+02 3.1631250030786404e+00 0 0 0
68 1 3.9871707024451104e+00 -1.1610473685208956e+02 1.3556250030786712e+00 0 0 0
70 1 4.6581668676421595e+00 -1.1442609874613227e+02 3.1631250030786768e+00 0 0 0
187 1 7.3429592860057573e+00 -1.1744599454835743e+02 1.3556250030786281e+00 0 0 0
168 1 9.6926754982399199e+00 -1.1643892110469498e+02 1.3556250030786472e+00 0 0 0
169 1 1.1371291047745466e+01 -1.1711085491614269e+02 3.1631250030786577e+00 0 0 0
174 1 1.0364184424497608e+01 -1.1476140063436664e+02 3.1631250030786786e+00 0 0 0
188 1 8.0142998960653529e+00 -1.1576767353888495e+02 3.1631250030786440e+00 0 0 0
189 1 8.6857562076996633e+00 -1.1408982302336089e+02 1.3556250030786736e+00 0 0 0
143 1 1.5398814395139500e+01 -1.1677565316171285e+02 1.3556250030787025e+00 0 0 0
144 1 1.4391852367642233e+01 -1.1442609874613235e+02 1.3556250030787338e+00 0 0 0
146 1 1.3720856202445121e+01 -1.1610473685208950e+02 3.1631250030786910e+00 0 0 0
171 1 1.2042616357565477e+01 -1.1543318526530747e+02 1.3556250030786963e+00 0 0 0
104 1 1.7747985396065491e+01 -1.1576767353888526e+02 1.3556250030787202e+00 0 0 0
105 1 1.9426360998240042e+01 -1.1643892110469521e+02 3.1631250030787066e+00 0 0 0
106 1 1.7076644786005673e+01 -1.1744599454835773e+02 3.1631250030786906e+00 0 0 0
110 1 1.8419441707700052e+01 -1.1408982302336119e+02 3.1631250030787319e+00 0 0 0
145 1 1.6069871326199291e+01 -1.1509689060710075e+02 3.1631250030787341e+00 0 0 0
69 1 2.9800629229548088e+00 -1.1375497873193858e+02 1.3556250030787034e+00 0 0 0
75 1 3.6511828786319991e+00 -1.1207659582299284e+02 3.1631250030787181e+00 0 0 0
109 1 1.3018082472526564e+00 -1.1308353674130542e+02 3.1631250030787377e+00 0 0 0
111 1 1.9730074691569774e+00 -1.1140538839078206e+02 1.3556250030787502e+00 0 0 0
114 1 2.9475207906631468e-01 -1.1073402017775267e+02 3.1631250030787808e+00 0 0 0
43 1 7.0074642166062819e+00 -1.1341861070488058e+02 3.1631250030786711e+00 0 0 0
72 1 5.3293046535734518e+00 -1.1274761949248368e+02 1.3556250030786903e+00 0 0 0
73 1 4.3223677568728140e+00 -1.1039827345402307e+02 1.3556250030787356e+00 0 0 0
74 1 6.0005580935830132e+00 -1.1106938335169876e+02 3.1631250030787079e+00 0 0 0
190 1 7.6788148968675038e+00 -1.1174059626530092e+02 1.3556250030786949e+00 0 0 0
172 1 1.1035493747252426e+01 -1.1308353674130537e+02 1.3556250030787105e+00 0 0 0
191 1 9.3571474943756900e+00 -1.1241200169203331e+02 3.1631250030786906e+00 0 0 0
192 1 1.0028437579066212e+01 -1.1073402017775254e+02 1.3556250030787262e+00 0 0 0
195 1 8.3501403818789512e+00 -1.1006261842556761e+02 3.1631250030787204e+00 0 0 0
150 1 1.5062990153573612e+01 -1.1274761949248392e+02 3.1631250030787643e+00 0 0 0
173 1 1.2713748422954637e+01 -1.1375497873193868e+02 3.1631250030787235e+00 0 0 0
175 1 1.3384868378631850e+01 -1.1207659582299331e+02 1.3556250030787542e+00 0 0 0
177 1 1.4056053256872731e+01 -1.1039827345402354e+02 3.1631250030787865e+00 0 0 0
178 1 1.1706692969156798e+01 -1.1140538839078241e+02 3.1631250030787430e+00 0 0 0
108 1 1.9090832994375951e+01 -1.1241200169203360e+02 1.3556250030787611e+00 0 0 0
147 1 1.6741149716606429e+01 -1.1341861070488079e+02 1.3556250030787600e+00 0 0 0
148 1 1.5734243593582857e+01 -1.1106938335169932e+02 1.3556250030787935e+00 0 0 0
149 1 1.7412500396867390e+01 -1.1174059626530135e+02 3.1631250030787812e+00 0 0 0
151 1 1.8083825881879001e+01 -1.1006261842556812e+02 1.3556250030788124e+00 0 0 0
112 1 9.6598075808373207e-01 -1.0905588934384591e+02 1.3556250030787971e+00 0 0 0
113 1 2.6441903542614207e+00 -1.0972713196466063e+02 3.1631250030787648e+00 0 0 0
115 1 3.3154039045341404e+00 -1.0804889426554800e+02 1.3556250030787866e+00 0 0 0
118 1 1.6371976232588006e+00 -1.0737769383550619e+02 3.1631250030788158e+00 0 0 0
76 1 6.6718560349199993e+00 -1.0939129447646665e+02 1.3556250030787287e+00 0 0 0
77 1 5.6648866594470526e+00 -1.0704194937407219e+02 1.3556250030787662e+00 0 0 0
78 1 4.9936135860495900e+00 -1.0872007116737191e+02 3.1631250030787577e+00 0 0 0
117 1 3.9866495989086417e+00 -1.0637071583735960e+02 3.1631250030787923e+00 0 0 0
202 1 7.3431465092353658e+00 -1.0771323532843415e+02 3.1631250030787483e+00 0 0 0
193 1 9.0214154821081731e+00 -1.0838456711064138e+02 1.3556250030787558e+00 0 0 0
194 1 1.0699666258084005e+01 -1.0905588934384610e+02 3.1631250030787590e+00 0 0 0
196 1 1.1370883123259038e+01 -1.0737769383550635e+02 1.3556250030787858e+00 0 0 0
199 1 9.6926585251823596e+00 -1.0670643830843652e+02 3.1631250030787723e+00 0 0 0
176 1 1.2377875854261468e+01 -1.0972713196466088e+02 1.3556250030787780e+00 0 0 0
179 1 1.4727299086049477e+01 -1.0872007116737242e+02 1.3556250030788146e+00 0 0 0
180 1 1.3720335098908764e+01 -1.0637071583735975e+02 1.3556250030788319e+00 0 0 0
181 1 1.5398572159447163e+01 -1.0704194937407259e+02 3.1631250030788380e+00 0 0 0
182 1 1.3049089404534273e+01 -1.0804889426554833e+02 3.1631250030787998e+00 0 0 0
152 1 1.7076832009235293e+01 -1.0771323532843461e+02 1.3556250030788444e+00 0 0 0
153 1 1.8755100982108026e+01 -1.0838456711064153e+02 3.1631250030788238e+00 0 0 0
154 1 1.6405541534919870e+01 -1.0939129447646738e+02 3.1631250030788234e+00 0 0 0
155 1 1.9426344025181919e+01 -1.0670643830843643e+02 1.3556250030788410e+00 0 0 0
116 1 2.3084283449457104e+00 -1.0569950219571307e+02 1.3556250030788290e+00 0 0 0
121 1 2.9796744468009551e+00 -1.0402133877229262e+02 3.1631250030788194e+00 0 0 0
157 1 6.3020745268254641e-01 -1.0502827237283459e+02 3.1631250030788558e+00 0 0 0
159 1 1.3014457921642153e+00 -1.0335010482980854e+02 1.3556250030788379e+00 0 0 0
79 1 7.0074171515945523e+00 -1.0368573451046913e+02 1.3556250030787766e+00 0 0 0
80 1 6.3361580359197109e+00 -1.0536384856184719e+02 3.1631250030787870e+00 0 0 0
119 1 4.6579102132916139e+00 -1.0469258054210215e+02 1.3556250030787902e+00 0 0 0
120 1 5.3291702526143858e+00 -1.0301445828205296e+02 3.1631250030787887e+00 0 0 0
197 1 1.0363892952683130e+01 -1.0502827237283434e+02 1.3556250030787771e+00 0 0 0
201 1 1.1035131292164742e+01 -1.0335010482980863e+02 3.1631250030787834e+00 0 0 0
203 1 8.0144126655645689e+00 -1.0603514349480669e+02 1.3556250030787638e+00 0 0 0
204 1 8.6856603882293317e+00 -1.0435701274589292e+02 3.1631250030787652e+00 0 0 0
407 1 9.3569016719470639e+00 -1.0267886054098493e+02 1.3556250030787611e+00 0 0 0
184 1 1.5062855752614579e+01 -1.0301445828205293e+02 1.3556250030788248e+00 0 0 0
186 1 1.4391595713291983e+01 -1.0469258054210209e+02 3.1631250030788363e+00 0 0 0
198 1 1.2042113844945987e+01 -1.0569950219571295e+02 3.1631250030787976e+00 0 0 0
200 1 1.2713359946801546e+01 -1.0402133877229278e+02 1.3556250030788024e+00 0 0 0
156 1 1.8419345888228921e+01 -1.0435701274589273e+02 1.3556250030788608e+00 0 0 0
158 1 1.7748098165564191e+01 -1.0603514349480679e+02 3.1631250030788602e+00 0 0 0
183 1 1.6069843535919670e+01 -1.0536384856184718e+02 1.3556250030788548e+00 0 0 0
185 1 1.6741102651594360e+01 -1.0368573451046888e+02 3.1631250030788451e+00 0 0 0
408 1 1.9090587171946755e+01 -1.0267886054098462e+02 3.1631250030788411e+00 0 0 0
205 1 3.6509283363820400e+00 -1.0234319820327921e+02 1.3556250030788106e+00 0 0 0
213 1 2.9445952221334748e-01 -1.0100070548970690e+02 1.3556250030788095e+00 0 0 0
214 1 1.9726918450057056e+00 -1.0167195085618403e+02 3.1631250030788141e+00 0 0 0
216 1 2.6439432939715166e+00 -9.9993808534259088e+01 1.3556250030787733e+00 0 0 0
219 1 9.6570709027486534e-01 -9.9322557100034388e+01 3.1631250030787599e+00 0 0 0
206 1 6.0004249792711999e+00 -1.0133633170322996e+02 1.3556250030787624e+00 0 0 0
207 1 4.9934350625447497e+00 -9.8986931915202561e+01 1.3556250030787236e+00 0 0 0
208 1 6.6716750130119387e+00 -9.9658195242173207e+01 3.1631250030787319e+00 0 0 0
209 1 4.3221826627458464e+00 -1.0066506576985779e+02 3.1631250030787741e+00 0 0 0
307 1 7.6786663436556086e+00 -1.0200760057511100e+02 3.1631250030787545e+00 0 0 0
305 1 8.3499115923967420e+00 -1.0032945413382082e+02 1.3556250030787242e+00 0 0 0
306 1 1.0028145022213412e+01 -1.0100070548970723e+02 3.1631250030787417e+00 0 0 0
308 1 1.0699392590274881e+01 -9.9322557100034402e+01 1.3556250030786903e+00 0 0 0
311 1 9.0211577195239148e+00 -9.8651305915776021e+01 3.1631250030786799e+00 0 0 0
264 1 1.1706377345006130e+01 -1.0167195085618435e+02 1.3556250030787662e+00 0 0 0
265 1 1.3384613836382364e+01 -1.0234319820327926e+02 3.1631250030787892e+00 0 0 0
266 1 1.4055868162745943e+01 -1.0066506576985736e+02 1.3556250030787642e+00 0 0 0
268 1 1.4727120562544647e+01 -9.8986931915201993e+01 3.1631250030787106e+00 0 0 0
269 1 1.2377628793971651e+01 -9.9993808534258875e+01 3.1631250030787168e+00 0 0 0
233 1 1.7412351843655490e+01 -1.0200760057511049e+02 1.3556250030788259e+00 0 0 0
234 1 1.6405360513011846e+01 -9.9658195242172752e+01 1.3556250030787538e+00 0 0 0
235 1 1.8083597092396722e+01 -1.0032945413382036e+02 3.1631250030787803e+00 0 0 0
236 1 1.5734110479271301e+01 -1.0133633170322925e+02 3.1631250030788003e+00 0 0 0
237 1 1.8754843219523931e+01 -9.8651305915775794e+01 1.3556250030787353e+00 0 0 0
217 1 1.6369565486206590e+00 -9.7644414347549031e+01 1.3556250030787045e+00 0 0 0
218 1 3.3151950860642310e+00 -9.8315670947170318e+01 3.1631250030787110e+00 0 0 0
223 1 2.3082072510420595e+00 -9.5966273997323128e+01 3.1631250030786444e+00 0 0 0
241 1 6.2996926016050625e-01 -9.5295017600534123e+01 1.3556250030786141e+00 0 0 0
210 1 6.3359330630043953e+00 -9.5630650851607271e+01 1.3556250030786146e+00 0 0 0
211 1 5.6646845179300582e+00 -9.7308793552774858e+01 3.1631250030786711e+00 0 0 0
220 1 3.9864457566775515e+00 -9.6637533092350239e+01 1.3556250030786701e+00 0 0 0
222 1 4.6576959116537333e+00 -9.4959392739726596e+01 3.1631250030786089e+00 0 0 0
345 1 7.3429220608863606e+00 -9.7980051673385404e+01 1.3556250030786809e+00 0 0 0
309 1 9.6924055773264683e+00 -9.6973160278662007e+01 1.3556250030786223e+00 0 0 0
310 1 1.1370642048620303e+01 -9.7644414347548548e+01 3.1631250030786431e+00 0 0 0
315 1 1.0363654760160099e+01 -9.5295017600533839e+01 3.1631250030785631e+00 0 0 0
346 1 8.0141694360291780e+00 -9.6301906649232507e+01 3.1631250030786227e+00 0 0 0
267 1 1.3048880586064021e+01 -9.8315670947169863e+01 1.3556250030786647e+00 0 0 0
270 1 1.5398370017929929e+01 -9.7308793552774262e+01 1.3556250030786552e+00 0 0 0
271 1 1.4391381411653446e+01 -9.4959392739726113e+01 1.3556250030785497e+00 0 0 0
273 1 1.3720131256677352e+01 -9.6637533092349642e+01 3.1631250030786155e+00 0 0 0
312 1 1.2041892751041718e+01 -9.5966273997322659e+01 1.3556250030785766e+00 0 0 0
238 1 1.7747854936029281e+01 -9.6301906649232180e+01 1.3556250030786321e+00 0 0 0
239 1 1.9426091077326561e+01 -9.6973160278662036e+01 3.1631250030786773e+00 0 0 0
240 1 1.7076607560886373e+01 -9.7980051673385006e+01 3.1631250030786906e+00 0 0 0
272 1 1.6069618563004266e+01 -9.5630650851606660e+01 3.1631250030785862e+00 0 0 0
221 1 2.9794577559028737e+00 -9.4288134000906908e+01 1.3556250030785879e+00 0 0 0
227 1 3.6507070297341633e+00 -9.2609992344669877e+01 3.1631250030785436e+00 0 0 0
243 1 1.3012192660982038e+00 -9.3616875990900311e+01 3.1631250030785538e+00 0 0 0
245 1 1.9724697417210046e+00 -9.1938734231951472e+01 1.3556250030785131e+00 0 0 0
248 1 2.9423251240515091e-01 -9.1267476418125526e+01 3.1631250030784757e+00 0 0 0
212 1 7.0071816554350521e+00 -9.3952506442294052e+01 3.1631250030785569e+00 0 0 0
224 1 5.3289449483891955e+00 -9.3281249837610545e+01 1.3556250030785530e+00 0 0 0
226 1 6.0001933450468830e+00 -9.1603106358945325e+01 3.1631250030785187e+00 0 0 0
348 1 7.6784307636649061e+00 -9.2274362507311722e+01 1.3556250030785093e+00 0 0 0
313 1 1.1034904766097819e+01 -9.3616875990899800e+01 1.3556250030785055e+00 0 0 0
347 1 8.6854179634018660e+00 -9.4623762109198964e+01 1.3556250030785613e+00 0 0 0
349 1 9.3566675870607448e+00 -9.2945619041040459e+01 3.1631250030785099e+00 0 0 0
350 1 1.0027918012404619e+01 -9.1267476418124929e+01 1.3556250030784625e+00 0 0 0
277 1 1.5062630448389072e+01 -9.3281249837610289e+01 3.1631250030784952e+00 0 0 0
314 1 1.2713143255902521e+01 -9.4288134000906339e+01 3.1631250030785187e+00 0 0 0
316 1 1.3384392529733811e+01 -9.2609992344669607e+01 1.3556250030784713e+00 0 0 0
319 1 1.1706155241720557e+01 -9.1938734231951358e+01 3.1631250030784592e+00 0 0 0
242 1 1.9090353087061118e+01 -9.2945619041040771e+01 1.3556250030785244e+00 0 0 0
244 1 1.8419103463402198e+01 -9.4623762109198921e+01 3.1631250030785694e+00 0 0 0
274 1 1.6740867155435080e+01 -9.3952506442293739e+01 1.3556250030785268e+00 0 0 0
275 1 1.5733878845046794e+01 -9.1603106358945439e+01 1.3556250030784465e+00 0 0 0
276 1 1.7412116263665208e+01 -9.2274362507311920e+01 3.1631250030784783e+00 0 0 0
246 1 9.6548229395327656e-01 -8.9589334213642488e+01 1.3556250030784582e+00 0 0 0
247 1 2.6437199294760001e+00 -9.0260591701606970e+01 3.1631250030784868e+00 0 0 0
249 1 3.3149701853969620e+00 -8.8582449280257464e+01 1.3556250030784709e+00 0 0 0
252 1 1.6367323729148358e+00 -8.7911191740488078e+01 3.1631250030784455e+00 0 0 0
225 1 4.3219568839571627e+00 -9.0931849591238787e+01 1.3556250030785024e+00 0 0 0
228 1 6.6714435240163859e+00 -8.9924963019937408e+01 1.3556250030784818e+00 0 0 0
229 1 5.6644570012742097e+00 -8.7575562658548705e+01 1.3556250030784762e+00 0 0 0
230 1 4.9932072606610287e+00 -8.9253705940294381e+01 3.1631250030784854e+00 0 0 0
377 1 7.3426939755146607e+00 -8.8246819778266996e+01 3.1631250030784690e+00 0 0 0
351 1 9.0209302866658305e+00 -8.8918077188453694e+01 1.3556250030784542e+00 0 0 0
352 1 1.0699167793953006e+01 -8.9589334213642033e+01 3.1631250030784299e+00 0 0 0
353 1 8.3496805934924563e+00 -9.0596219806215629e+01 3.1631250030784717e+00 0 0 0
354 1 1.1370417872914770e+01 -8.7911191740487823e+01 1.3556250030784143e+00 0 0 0
317 1 1.2377405429475703e+01 -9.0260591701606714e+01 1.3556250030784283e+00 0 0 0
318 1 1.4055642383956981e+01 -9.0931849591238759e+01 3.1631250030784366e+00 0 0 0
320 1 1.4726892760661032e+01 -8.9253705940294410e+01 1.3556250030783970e+00 0 0 0
322 1 1.5398142501274329e+01 -8.7575562658549103e+01 3.1631250030783900e+00 0 0 0
323 1 1.3048655685396806e+01 -8.8582449280257578e+01 3.1631250030784068e+00 0 0 0
278 1 1.8083366093492785e+01 -9.0596219806216084e+01 1.3556250030784485e+00 0 0 0
279 1 1.7076379475514742e+01 -8.8246819778267380e+01 1.3556250030783981e+00 0 0 0
280 1 1.8754615786666012e+01 -8.8918077188454234e+01 3.1631250030784273e+00 0 0 0
281 1 1.6405129024016457e+01 -8.9924963019937621e+01 3.1631250030784162e+00 0 0 0
250 1 2.3079837917998001e+00 -8.6233048643503110e+01 1.3556250030784529e+00 0 0 0
256 1 2.9792344527569767e+00 -8.4554905487230045e+01 3.1631250030784712e+00 0 0 0
284 1 6.2974691427854712e-01 -8.5561791130514024e+01 3.1631250030784335e+00 0 0 0
286 1 1.3009978203452941e+00 -8.3883648450832254e+01 1.3556250030784514e+00 0 0 0
231 1 7.0069586757541318e+00 -8.4219276650791670e+01 1.3556250030784840e+00 0 0 0
232 1 6.3357073813101987e+00 -8.5897419437293649e+01 3.1631250030784752e+00 0 0 0
251 1 3.9862203826430878e+00 -8.6904306087913000e+01 3.1631250030784770e+00 0 0 0
253 1 4.6574710346263606e+00 -8.5226162080515678e+01 1.3556250030784753e+00 0 0 0
255 1 5.3287220309691916e+00 -8.3548019189954886e+01 3.1631250030784930e+00 0 0 0
355 1 1.0363432414278600e+01 -8.5561791130513981e+01 1.3556250030784380e+00 0 0 0
357 1 9.6921813389701619e+00 -8.7239933726458403e+01 3.1631250030784424e+00 0 0 0
361 1 1.1034683320345490e+01 -8.3883648450832297e+01 3.1631250030784481e+00 0 0 0
378 1 8.0139442505162375e+00 -8.6568676657708522e+01 1.3556250030784571e+00 0 0 0
379 1 8.6851954243241138e+00 -8.4890533901504270e+01 3.1631250030784637e+00 0 0 0
321 1 1.3719905882643079e+01 -8.6904306087913398e+01 1.3556250030783932e+00 0 0 0
325 1 1.5062407530969468e+01 -8.3548019189955284e+01 1.3556250030784167e+00 0 0 0
327 1 1.4391156534626598e+01 -8.5226162080516104e+01 3.1631250030783997e+00 0 0 0
356 1 1.2041669291799888e+01 -8.6233048643503309e+01 3.1631250030784113e+00 0 0 0
358 1 1.2712919952757279e+01 -8.4554905487230513e+01 1.3556250030784183e+00 0 0 0
282 1 1.9425866838970112e+01 -8.7239933726458730e+01 1.3556250030784238e+00 0 0 0
283 1 1.8418880924324128e+01 -8.4890533901504199e+01 1.3556250030784127e+00 0 0 0
285 1 1.7747629750516410e+01 -8.6568676657708920e+01 3.1631250030784033e+00 0 0 0
324 1 1.6069392881310268e+01 -8.5897419437294161e+01 1.3556250030783970e+00 0 0 0
326 1 1.6740644175754294e+01 -8.4219276650792096e+01 3.1631250030784126e+00 0 0 0
254 1 3.6504855627326651e+00 -8.2876762319848851e+01 1.3556250030784842e+00 0 0 0
287 1 2.9401260143639407e-01 -8.1534248805795457e+01 1.3556250030784653e+00 0 0 0
288 1 1.9722489384698334e+00 -8.2205505472088134e+01 3.1631250030784810e+00 0 0 0
290 1 2.6434998708227941e+00 -8.0527362917486187e+01 1.3556250030785031e+00 0 0 0
293 1 9.6526295650256266e-01 -7.9856106019653822e+01 3.1631250030785019e+00 0 0 0
257 1 5.9999731428554552e+00 -8.1869876644294905e+01 1.3556250030785140e+00 0 0 0
259 1 6.6712241711159495e+00 -8.0191734010434715e+01 3.1631250030785387e+00 0 0 0
260 1 4.3217368601966806e+00 -8.1198619264634132e+01 3.1631250030785147e+00 0 0 0
383 1 7.6782098663586735e+00 -8.2541134232437344e+01 3.1631250030785019e+00 0 0 0
380 1 9.3564465619330388e+00 -8.3212391179626138e+01 1.3556250030784756e+00 0 0 0
381 1 8.3494608731456808e+00 -8.0862991735945386e+01 1.3556250030785326e+00 0 0 0
382 1 1.0027698101436755e+01 -8.1534248805795613e+01 3.1631250030785001e+00 0 0 0
384 1 1.0698948456502986e+01 -7.9856106019653879e+01 1.3556250030785240e+00 0 0 0
359 1 1.1705934438470123e+01 -8.2205505472088461e+01 1.3556250030784718e+00 0 0 0
360 1 1.3384171062732921e+01 -8.2876762319849277e+01 3.1631250030784379e+00 0 0 0
362 1 1.4055422360196777e+01 -8.1198619264634232e+01 1.3556250030784642e+00 0 0 0
365 1 1.2377185370823149e+01 -8.0527362917486485e+01 3.1631250030784970e+00 0 0 0
289 1 1.9090132061932970e+01 -8.3212391179626323e+01 3.1631250030784424e+00 0 0 0
328 1 1.7411895366358653e+01 -8.2541134232437500e+01 1.3556250030784363e+00 0 0 0
329 1 1.6404909671115735e+01 -8.0191734010434772e+01 1.3556250030784713e+00 0 0 0
330 1 1.8083146373145549e+01 -8.0862991735945158e+01 3.1631250030784619e+00 0 0 0
331 1 1.5733658642855641e+01 -8.1869876644295346e+01 3.1631250030784441e+00 0 0 0
291 1 1.6365128554621988e+00 -7.8177963181102271e+01 1.3556250030785275e+00 0 0 0
292 1 3.3147495798378084e+00 -7.8849219680705517e+01 3.1631250030785374e+00 0 0 0
297 1 2.3077608620047503e+00 -7.6499820657414077e+01 3.1631250030785729e+00 0 0 0
258 1 4.9929865916252716e+00 -7.9520476563556613e+01 1.3556250030785335e+00 0 0 0
261 1 6.3354846903609561e+00 -7.6164192743900941e+01 1.3556250030786039e+00 0 0 0
262 1 5.6642359171858727e+00 -7.7842334212493071e+01 3.1631250030785711e+00 0 0 0
294 1 3.9859984087839253e+00 -7.7171076687215418e+01 1.3556250030785693e+00 0 0 0
398 1 7.3424734539804586e+00 -7.8513592327258536e+01 1.3556250030785639e+00 0 0 0
385 1 9.6919603420569462e+00 -7.7506706533663518e+01 1.3556250030785846e+00 0 0 0
386 1 1.1370198355462442e+01 -7.8177963181102569e+01 3.1631250030785574e+00 0 0 0
387 1 9.0207116202503244e+00 -7.9184849093565106e+01 3.1631250030785489e+00 0 0 0
399 1 8.0137225130492808e+00 -7.6835449917028001e+01 3.1631250030786022e+00 0 0 0
363 1 1.3048435079838127e+01 -7.8849219680705474e+01 1.3556250030785275e+00 0 0 0
364 1 1.4726672091625362e+01 -7.9520476563556485e+01 3.1631250030785010e+00 0 0 0
366 1 1.5397921417185744e+01 -7.7842334212492645e+01 1.3556250030785324e+00 0 0 0
369 1 1.3719683908783939e+01 -7.7171076687215290e+01 3.1631250030785640e+00 0 0 0
388 1 1.2041446362004983e+01 -7.6499820657414261e+01 1.3556250030785937e+00 0 0 0
332 1 1.8754397120249898e+01 -7.9184849093564949e+01 1.3556250030784924e+00 0 0 0
333 1 1.7747408013049011e+01 -7.6835449917027617e+01 1.3556250030785515e+00 0 0 0
334 1 1.9425645842056518e+01 -7.7506706533663206e+01 3.1631250030785472e+00 0 0 0
335 1 1.7076158953979885e+01 -7.8513592327258323e+01 3.1631250030785174e+00 0 0 0