LAMMPS data file via write_data, version 15 May 2015, timestep = 801

600 atoms
5 atom types

0.0000000000000000e+00 8.0833860000000008e+00 xlo xhi
-1.2156675143340000e+02 1.2156675143340000e+02 ylo yhi
0.0000000000000000e+00 3.6150000000000002e+00 zlo zhi

Atoms # atomic

11 1 2.0237495203966419e-01 -1.1816524319400548e+02 3.6149997682275066e+00 0 0 0
17 1 2.6304650533234852e+00 -1.2142844544879350e+02 1.8074998528056920e+00 0 0 0
18 1 1.8194545559414368e+00 -1.1898143896061030e+02 1.8074997807512161e+00 0 0 0
19 1 3.4302562635607550e+00 -1.1977486322840967e+02 3.6149998065222584e+00 0 0 0
20 1 1.0148083009635058e+00 -1.2058799815331648e+02 3.6149998336276088e+00 0 0 0
6 1 5.0565013050195615e+00 -1.2058799815240206e+02 1.8074998347640205e+00 0 0 0
7 1 6.6721580539420469e+00 -1.2142844544826494e+02 3.6149998513719459e+00 0 0 0
9 1 7.4719492604192208e+00 -1.1977486322201976e+02 1.8074998086334297e+00 0 0 0
12 1 5.8611475557705415e+00 -1.1898143897384767e+02 3.6149997831184977e+00 0 0 0
21 1 4.2440679467897562e+00 -1.1816524319816514e+02 1.8074997642138964e+00 0 0 0
13 1 2.0151565407386371e-01 -1.1412534907731440e+02 1.8074996675009840e+00 0 0 0
22 1 3.4349552383498940e+00 -1.1574126291379567e+02 1.8074997066284535e+00 0 0 0
24 1 2.6255072534155302e+00 -1.1735681788153613e+02 3.6149997435640446e+00 0 0 0
35 1 1.0101784842353632e+00 -1.1655136694004010e+02 1.8074997285814067e+00 0 0 0
36 1 1.8179169531692341e+00 -1.1493311689436747e+02 3.6149996774906175e+00 0 0 0
10 1 6.6672002542558300e+00 -1.1735681788211535e+02 1.8074997392449093e+00 0 0 0
14 1 7.4766482328280501e+00 -1.1574126290222848e+02 3.6149997037604207e+00 0 0 0
23 1 5.0518714804116707e+00 -1.1655136693056527e+02 3.6149997254232913e+00 0 0 0
25 1 5.8596099607128487e+00 -1.1493311689095103e+02 1.8074996752779648e+00 0 0 0
28 1 4.2432086536758646e+00 -1.1412534907349747e+02 3.6149996608767467e+00 0 0 0
37 1 2.6264357523872577e+00 -1.1331664745601496e+02 1.8074996455030767e+00 0 0 0
38 1 1.8180174517068814e+00 -1.1089182060712447e+02 1.8074995987200404e+00 0 0 0
39 1 3.4347362827800265e+00 -1.1170020930892188e+02 3.6149996123963044e+00 0 0 0
40 1 1.0096782109390918e+00 -1.1250841427603180e+02 3.6149996278344134e+00 0 0 0
26 1 5.0513712135392552e+00 -1.1250841428103334e+02 1.8074996263407928e+00 0 0 0
27 1 6.6681287535506764e+00 -1.1331664744558232e+02 3.6149996421199915e+00 0 0 0
29 1 7.4764292818200504e+00 -1.1170020931150816e+02 1.8074996143981166e+00 0 0 0
32 1 5.8597104485255818e+00 -1.1089182061519942e+02 3.6149996011844494e+00 0 0 0
31 1 2.0130914584484522e-01 -1.1008354055788459e+02 3.6149995926522682e+00 0 0 0
42 1 3.4346058052998241e+00 -1.0765863821820571e+02 1.8074995800297364e+00 0 0 0
44 1 2.6263162259190223e+00 -1.0927525534725727e+02 3.6149995907879608e+00 0 0 0
55 1 1.0096120410177327e+00 -1.0846693525274208e+02 1.8074995839690600e+00 0 0 0
56 1 1.8179101680868637e+00 -1.0685033947098825e+02 3.6149995865295814e+00 0 0 0
30 1 6.6680092301286642e+00 -1.0927525534806587e+02 1.8074995905004980e+00 0 0 0
34 1 7.4762988044713676e+00 -1.0765863821369494e+02 3.6149995788858313e+00 0 0 0
41 1 4.2430021396531075e+00 -1.1008354055175495e+02 1.8074995906439366e+00 0 0 0
43 1 5.0513050341860568e+00 -1.0846693523984007e+02 3.6149995865432376e+00 0 0 0
45 1 5.8596031688678014e+00 -1.0685033946641359e+02 1.8074995941854100e+00 0 0 0
33 1 2.0121035945990554e-01 -1.0604203251888502e+02 1.8074995828390312e+00 0 0 0
57 1 2.6262044175023429e+00 -1.0523373237540552e+02 1.8074995885459277e+00 0 0 0
58 1 1.8177966987366356e+00 -1.0280882851641105e+02 1.8074995897816315e+00 0 0 0
59 1 3.4344957266789611e+00 -1.0361712914926731e+02 3.6149995827012260e+00 0 0 0
60 1 1.0095045412505315e+00 -1.0442543174868707e+02 3.6149995844203948e+00 0 0 0
46 1 5.0511975449244657e+00 -1.0442543175188268e+02 1.8074995861147001e+00 0 0 0
47 1 6.6678974096965611e+00 -1.0523373237376077e+02 3.6149995880209445e+00 0 0 0
48 1 4.2429033678627741e+00 -1.0604203251623086e+02 3.6149995787836806e+00 0 0 0
49 1 7.4761887185988476e+00 -1.0361712915217993e+02 1.8074995852340821e+00 0 0 0
52 1 5.8594897042983485e+00 -1.0280882852709182e+02 3.6149995911809194e+00 0 0 0
51 1 2.0109709335170686e-01 -1.0200052780879332e+02 3.6149995839611653e+00 0 0 0
62 1 3.4343786048737099e+00 -9.9575623031917857e+01 1.8074995736308097e+00 0 0 0
64 1 2.6260890282650267e+00 -1.0119222664133312e+02 3.6149995772904489e+00 0 0 0
71 1 1.0093880932270851e+00 -1.0038392457371319e+02 1.8074995797494342e+00 0 0 0
50 1 6.6677820348343309e+00 -1.0119222663538785e+02 1.8074995791631507e+00 0 0 0
54 1 7.4760716080575857e+00 -9.9575623023855414e+01 3.6149995650654887e+00 0 0 0
61 1 4.2427900872379016e+00 -1.0200052780155896e+02 1.8074995832350413e+00 0 0 0
63 1 5.0510810896895775e+00 -1.0038392457231187e+02 3.6149995737323373e+00 0 0 0
53 1 2.0097715626573581e-01 -9.7959019330454993e+01 1.8074995611753712e+00 0 0 0
72 1 1.8176779684702240e+00 -9.8767320698492583e+01 3.6149995667631476e+00 0 0 0
73 1 2.6259709145297649e+00 -9.7150716798126723e+01 1.8074995498830306e+00 0 0 0
75 1 3.4342656546662886e+00 -9.5534113746753917e+01 3.6149995595918440e+00 0 0 0
76 1 1.0092733931944773e+00 -9.6342415487310390e+01 3.6149995626556053e+00 0 0 0
65 1 5.8593709695958314e+00 -9.8767320688225240e+01 1.8074995674006598e+00 0 0 0
66 1 5.0509663967041458e+00 -9.6342415491357556e+01 1.8074995602813406e+00 0 0 0
67 1 6.6676639093953884e+00 -9.7150716792188987e+01 3.6149995568380175e+00 0 0 0
68 1 4.2426701627609162e+00 -9.7959019332527120e+01 3.6149995682667107e+00 0 0 0
69 1 7.4759586484620746e+00 -9.5534113743429558e+01 1.8074995568645498e+00 0 0 0
74 1 1.8175661681473410e+00 -9.4725811813674696e+01 1.8074995636112769e+00 0 0 0
78 1 2.0086660319239807e-01 -9.3917511481018124e+01 3.6149995638472059e+00 0 0 0
82 1 3.4341553530034736e+00 -9.1492604920931498e+01 1.8074995860874843e+00 0 0 0
84 1 2.6258612215257950e+00 -9.3109207924203503e+01 3.6149995712568526e+00 0 0 0
95 1 1.0091625274630973e+00 -9.2300906362438909e+01 1.8074995759971506e+00 0 0 0
70 1 5.8592591719672962e+00 -9.4725811822698802e+01 3.6149995602614271e+00 0 0 0
77 1 6.6675542221198087e+00 -9.3109207916253482e+01 1.8074995721739600e+00 0 0 0
80 1 7.4758483572443524e+00 -9.1492604919330574e+01 3.6149995875736112e+00 0 0 0
81 1 4.2425595904773843e+00 -9.3917511473957020e+01 1.8074995690082987e+00 0 0 0
83 1 5.0508555172829954e+00 -9.2300906362993501e+01 3.6149995752440867e+00 0 0 0
79 1 2.0075250111249876e-01 -8.9876003673519051e+01 1.8074995948187309e+00 0 0 0
96 1 1.8174540850739205e+00 -9.0684302359647901e+01 3.6149995865680227e+00 0 0 0
97 1 2.6257412109357370e+00 -8.9067701485034718e+01 1.8074995964778060e+00 0 0 0
99 1 3.4340308614626274e+00 -8.7451101461766029e+01 3.6149995997884870e+00 0 0 0
100 1 1.0090395651428963e+00 -8.8259401275606166e+01 3.6149996016582824e+00 0 0 0
85 1 5.8591470835978932e+00 -9.0684302352757342e+01 1.8074995844616797e+00 0 0 0
86 1 5.0507325772163369e+00 -8.8259401281605179e+01 1.8074995953768127e+00 0 0 0
87 1 6.6674342066914907e+00 -8.9067701477519222e+01 3.6149996024571274e+00 0 0 0
88 1 4.2424455022395664e+00 -8.9876003666188865e+01 3.6149995962321375e+00 0 0 0
89 1 7.4757238618114741e+00 -8.7451101475104991e+01 1.8074996008604334e+00 0 0 0
91 1 2.0062546751021246e-01 -8.5834497902937258e+01 3.6149995886923096e+00 0 0 0
98 1 1.8173296124784608e+00 -8.6642799587676237e+01 1.8074995949347263e+00 0 0 0
104 1 2.6256140697285444e+00 -8.5026196200657267e+01 3.6149995819488479e+00 0 0 0
115 1 1.0089117132933041e+00 -8.4217895951780918e+01 1.8074995751677150e+00 0 0 0
90 1 6.6673070696343952e+00 -8.5026196210195408e+01 1.8074995846770614e+00 0 0 0
92 1 5.8590226162451131e+00 -8.6642799596189320e+01 3.6149995905219217e+00 0 0 0
101 1 4.2423184638410589e+00 -8.5834497898410689e+01 1.8074995946993093e+00 0 0 0
103 1 5.0506047114194041e+00 -8.4217895951742150e+01 3.6149995743726997e+00 0 0 0
93 1 2.0050237496812290e-01 -8.1792992366564278e+01 1.8074995511911660e+00 0 0 0
102 1 3.4339017773712461e+00 -8.3409593742397931e+01 1.8074995613547760e+00 0 0 0
116 1 1.8172028414480046e+00 -8.2601292340174496e+01 3.6149995627962812e+00 0 0 0
117 1 2.6254943138438636e+00 -8.0984690574393298e+01 1.8074995494238644e+00 0 0 0
120 1 1.0087910063633263e+00 -8.0176387965381977e+01 3.6149995381340134e+00 0 0 0
94 1 7.4755947738227837e+00 -8.3409593747657652e+01 3.6149995650450948e+00 0 0 0
105 1 5.8588958392911152e+00 -8.2601292337065146e+01 1.8074995577675805e+00 0 0 0
106 1 5.0504840055557949e+00 -8.0176387974566396e+01 1.8074995397785310e+00 0 0 0
107 1 6.6671873068161842e+00 -8.0984690574073980e+01 3.6149995477896080e+00 0 0 0
108 1 4.2421953782120525e+00 -8.1792992364334978e+01 3.6149995520043894e+00 0 0 0
111 1 2.0038079336598236e-01 -7.7751482549248436e+01 3.6149995415139484e+00 0 0 0
118 1 1.8170821572159643e+00 -7.8559784988727856e+01 1.8074995374163627e+00 0 0 0
119 1 3.4337826428288571e+00 -7.9368087002677925e+01 3.6149995358119513e+00 0 0 0
124 1 2.6253731284047954e+00 -7.6943181088340324e+01 3.6149995400981929e+00 0 0 0
135 1 1.0086712205254240e+00 -7.6134879712477783e+01 1.8074995301611154e+00 0 0 0
109 1 7.4754756479206543e+00 -7.9368087005350915e+01 1.8074995372078493e+00 0 0 0
110 1 6.6670661290686519e+00 -7.6943181089906503e+01 1.8074995358588524e+00 0 0 0
112 1 5.8587751599739839e+00 -7.8559784995396484e+01 3.6149995400331707e+00 0 0 0
121 1 4.2420737859135702e+00 -7.7751482544848713e+01 1.8074995355054775e+00 0 0 0
123 1 5.0503642201662569e+00 -7.6134879711713992e+01 3.6149995402515467e+00 0 0 0
113 1 2.0025931785024456e-01 -7.3709973310203935e+01 1.8074995353398888e+00 0 0 0
122 1 3.4336621484707410e+00 -7.5326577475008946e+01 1.8074995373514195e+00 0 0 0
136 1 1.8169600676034801e+00 -7.4518274946552921e+01 3.6149995421005676e+00 0 0 0
137 1 2.6252514124998254e+00 -7.2901671102745397e+01 1.8074995355569472e+00 0 0 0
114 1 7.4753551506448925e+00 -7.5326577482433748e+01 3.6149995402217874e+00 0 0 0
125 1 5.8586530662174994e+00 -7.4518274936347396e+01 1.8074995444506294e+00 0 0 0
127 1 6.6669444119559866e+00 -7.2901671106870893e+01 3.6149995307993312e+00 0 0 0
128 1 4.2419523208614569e+00 -7.3709973306264786e+01 3.6149995371356027e+00 0 0 0
131 1 2.0014387533740077e-01 -6.9668465918160194e+01 3.6149995018376764e+00 0 0 0
138 1 1.8168435448925884e+00 -7.0476767475755253e+01 1.8074995160130243e+00 0 0 0
139 1 3.4335432230054082e+00 -7.1285068429383315e+01 3.6149995190116431e+00 0 0 0
140 1 1.0085503752999103e+00 -7.2093369222575603e+01 3.6149995214036665e+00 0 0 0
144 1 2.6251365922406644e+00 -6.8860164339030334e+01 3.6149995040638352e+00 0 0 0
126 1 5.0502433772541417e+00 -7.2093369232065839e+01 1.8074995271657519e+00 0 0 0
129 1 7.4752362277965654e+00 -7.1285068440560067e+01 1.8074995203168878e+00 0 0 0
130 1 6.6668295943157716e+00 -6.8860164345410894e+01 1.8074994964184572e+00 0 0 0
132 1 5.8585365423983529e+00 -7.0476767483439005e+01 3.6149995125756971e+00 0 0 0
141 1 4.2418368703399310e+00 -6.9668465918905028e+01 1.8074995006688319e+00 0 0 0
133 1 2.0001307361090037e-01 -6.5626962392641985e+01 1.8074994962708870e+00 0 0 0
142 1 3.4334243279939094e+00 -6.7243562053657939e+01 1.8074994932343735e+00 0 0 0
149 1 1.0084350585127815e+00 -6.8051863073670702e+01 1.8074994903887589e+00 0 0 0
150 1 1.8167189320288306e+00 -6.6435261822707517e+01 3.6149994853903462e+00 0 0 0
151 1 2.6250007194423142e+00 -6.4818662882497506e+01 1.8074995004490328e+00 0 0 0
134 1 7.4751173324453069e+00 -6.7243562049142170e+01 3.6149994916437165e+00 0 0 0
143 1 5.0501280538079358e+00 -6.8051863076705658e+01 3.6149994949958053e+00 0 0 0
145 1 5.8584119320525430e+00 -6.6435261815309985e+01 1.8074994936886148e+00 0 0 0
147 1 6.6666937212073218e+00 -6.4818662874755788e+01 3.6149994954572824e+00 0 0 0
148 1 4.2417060773600621e+00 -6.5626962407145598e+01 3.6149994871351985e+00 0 0 0
152 1 1.0082965590286090e+00 -6.4010362658294298e+01 3.6149995120243230e+00 0 0 0
155 1 1.9988267692215031e-01 -6.1585459724494186e+01 3.6149995423073609e+00 0 0 0
159 1 1.8165849724988576e+00 -6.2393760832245341e+01 1.8074995232806808e+00 0 0 0
160 1 3.4332868547860094e+00 -6.3202061895129923e+01 3.6149995177396712e+00 0 0 0
146 1 5.0499895680675202e+00 -6.4010362667581020e+01 1.8074995061732297e+00 0 0 0
153 1 7.4749798559324852e+00 -6.3202061890103614e+01 1.8074995118804846e+00 0 0 0
156 1 5.8582779805239884e+00 -6.2393760828668576e+01 3.6149995271696089e+00 0 0 0
161 1 4.2415756818531509e+00 -6.1585459729416911e+01 1.8074995374690481e+00 0 0 0
157 1 1.9973989577856707e-01 -5.7543958754786296e+01 1.8074995797460480e+00 0 0 0
162 1 3.4331546170130811e+00 -5.9160559083256807e+01 1.8074995737136881e+00 0 0 0
164 1 2.6248722761443712e+00 -6.0777159023175670e+01 3.6149995533972721e+00 0 0 0
175 1 1.0081676108211504e+00 -5.9968858958349053e+01 1.8074995687918947e+00 0 0 0
176 1 1.8164475236233697e+00 -5.8352258930946611e+01 3.6149995728421627e+00 0 0 0
154 1 6.6665652788539109e+00 -6.0777159024701234e+01 1.8074995539558452e+00 0 0 0
158 1 7.4748476106960151e+00 -5.9160559087178534e+01 3.6149995692930705e+00 0 0 0
163 1 5.0498606120111988e+00 -5.9968858951907258e+01 3.6149995651635507e+00 0 0 0
165 1 5.8581405144170517e+00 -5.8352258925965018e+01 1.8074995726455401e+00 0 0 0
168 1 4.2414328969851587e+00 -5.7543958756546509e+01 3.6149995804332371e+00 0 0 0
171 1 1.9958682250067727e-01 -5.3502459860043558e+01 3.6149995503474606e+00 0 0 0
177 1 2.6247251151963251e+00 -5.6735658907634502e+01 1.8074995773439588e+00 0 0 0
178 1 1.8162939809054557e+00 -5.4310759926928249e+01 1.8074995481807323e+00 0 0 0
179 1 3.4330017573644072e+00 -5.5119059405576763e+01 3.6149995641954678e+00 0 0 0
180 1 1.0080169225570630e+00 -5.5927359098473588e+01 3.6149995710747898e+00 0 0 0
166 1 5.0497099164602046e+00 -5.5927359099660606e+01 1.8074995688616686e+00 0 0 0
167 1 6.6664181131193230e+00 -5.6735658919321715e+01 3.6149995804597603e+00 0 0 0
169 1 7.4746947619581947e+00 -5.5119059410406905e+01 1.8074995616991678e+00 0 0 0
172 1 5.8579869860479334e+00 -5.4310759934406853e+01 3.6149995540565727e+00 0 0 0
181 1 4.2412798185998710e+00 -5.3502459859640780e+01 1.8074995511690353e+00 0 0 0
173 1 1.9946941501428228e-01 -4.9460949802986995e+01 1.8074995030116578e+00 0 0 0
182 1 3.4328635772337459e+00 -5.1077554637265401e+01 1.8074995152225257e+00 0 0 0
184 1 2.6245738994761463e+00 -5.2694158399452874e+01 3.6149995345488533e+00 0 0 0
195 1 1.0078706310822705e+00 -5.1885856389419835e+01 1.8074995250720867e+00 0 0 0
196 1 1.8161652566953719e+00 -5.0269251987245120e+01 3.6149995117928255e+00 0 0 0
170 1 6.6662669050515078e+00 -5.2694158406417195e+01 1.8074995391813315e+00 0 0 0
174 1 7.4745565733913439e+00 -5.1077554638656110e+01 3.6149995113080973e+00 0 0 0
183 1 5.0495636279937344e+00 -5.1885856385242299e+01 3.6149995233021479e+00 0 0 0
185 1 5.8578582554709868e+00 -5.0269251995942099e+01 1.8074995108920877e+00 0 0 0
188 1 4.2411624208362779e+00 -4.9460949810529172e+01 3.6149995110394761e+00 0 0 0
197 1 2.6244676685137005e+00 -4.8652648251990250e+01 1.8074994971373652e+00 0 0 0
198 1 1.8160801728199172e+00 -4.6227739851211467e+01 1.8074995145362132e+00 0 0 0
199 1 3.4327731137771700e+00 -4.7036042959116990e+01 3.6149994993368351e+00 0 0 0
200 1 1.0077739452698615e+00 -4.7844346006470921e+01 3.6149995043662755e+00 0 0 0
186 1 5.0494669542332655e+00 -4.7844346013080681e+01 1.8074994945566243e+00 0 0 0
187 1 6.6661606674619689e+00 -4.8652648260864943e+01 3.6149995060523890e+00 0 0 0
189 1 7.4744661084842647e+00 -4.7036042957791217e+01 1.8074994992633318e+00 0 0 0
192 1 5.8577731795083192e+00 -4.6227739855554162e+01 3.6149995103388104e+00 0 0 0
191 1 1.9938742185711275e-01 -4.5419437335626377e+01 3.6149995125180610e+00 0 0 0
202 1 3.4326887505314363e+00 -4.2994530364140147e+01 1.8074995286130155e+00 0 0 0
204 1 2.6243852127092406e+00 -4.4611133497877468e+01 3.6149995136044843e+00 0 0 0
214 1 1.0076914747902408e+00 -4.3802831058172103e+01 1.8074995217278933e+00 0 0 0
215 1 1.8159935204533426e+00 -4.2186228819710585e+01 3.6149995408430828e+00 0 0 0
190 1 6.6660782135620060e+00 -4.4611133498275692e+01 1.8074995173364559e+00 0 0 0
194 1 7.4743817441126801e+00 -4.2994530361164138e+01 3.6149995314088739e+00 0 0 0
201 1 4.2410804230917529e+00 -4.5419437338135040e+01 1.8074995165297489e+00 0 0 0
203 1 5.0493844746344445e+00 -4.3802831051667035e+01 3.6149995221230391e+00 0 0 0
205 1 5.8576865180036615e+00 -4.2186228822640459e+01 1.8074995356250261e+00 0 0 0
193 1 1.9929536456234082e-01 -4.1377927141229812e+01 1.8074995396366831e+00 0 0 0
216 1 2.6242914746862671e+00 -4.0569626999223303e+01 1.8074995386454873e+00 0 0 0
217 1 1.8158965995971712e+00 -3.8144719059488075e+01 1.8074995606510864e+00 0 0 0
218 1 3.4325901727676320e+00 -3.8953021801463954e+01 3.6149995564129482e+00 0 0 0
219 1 1.0075946266811069e+00 -3.9761324835195197e+01 3.6149995504855927e+00 0 0 0
206 1 5.0492876241734610e+00 -3.9761324835232926e+01 1.8074995482037106e+00 0 0 0
207 1 6.6659844759569582e+00 -4.0569626997969600e+01 3.6149995394770147e+00 0 0 0
208 1 4.2409883594292932e+00 -4.1377927143746433e+01 3.6149995421655694e+00 0 0 0
209 1 7.4742831802469523e+00 -3.8953021803182651e+01 1.8074995582152298e+00 0 0 0
212 1 5.8575896053178331e+00 -3.8144719065028092e+01 3.6149995541427180e+00 0 0 0
211 1 1.9920039063874406e-01 -3.7336416854965215e+01 3.6149995592160717e+00 0 0 0
221 1 3.4324966645191330e+00 -3.4911513564188581e+01 1.8074995789606452e+00 0 0 0
223 1 2.6241987330514567e+00 -3.6528115727082984e+01 3.6149995618696535e+00 0 0 0
225 1 1.0075001136665405e+00 -3.5719812576640699e+01 1.8074995696114535e+00 0 0 0
210 1 6.6658917308579584e+00 -3.6528115727742495e+01 1.8074995640027745e+00 0 0 0
213 1 7.4741896545998445e+00 -3.4911513561778847e+01 3.6149995897180780e+00 0 0 0
220 1 4.2408933880214850e+00 -3.7336416850873313e+01 1.8074995654525279e+00 0 0 0
222 1 5.0491931152373013e+00 -3.5719812575204699e+01 3.6149995748431385e+00 0 0 0
226 1 1.8157979620517917e+00 -3.4103211670732222e+01 3.6149995880186405e+00 0 0 0
227 1 1.9909870103329053e-01 -3.3294910006412003e+01 1.8074995913889031e+00 0 0 0
237 1 2.6240938625890449e+00 -3.2486608788988043e+01 1.8074996049487582e+00 0 0 0
239 1 3.4323911862451109e+00 -3.0870003966160674e+01 3.6149996183062805e+00 0 0 0
240 1 1.0073956976390293e+00 -3.1678304879393764e+01 3.6149996037903174e+00 0 0 0
224 1 5.8574909565070081e+00 -3.4103211680165224e+01 1.8074995792281860e+00 0 0 0
228 1 5.0490887000083005e+00 -3.1678304887578790e+01 1.8074996153588661e+00 0 0 0
229 1 6.6657868582627371e+00 -3.2486608785645174e+01 3.6149996030164853e+00 0 0 0
230 1 4.2407917032856819e+00 -3.3294910017611841e+01 3.6149995935901709e+00 0 0 0
231 1 7.4740841868288337e+00 -3.0870003955324673e+01 1.8074996284339853e+00 0 0 0
233 1 1.9899496936473871e-01 -2.9253398726711570e+01 3.6149996292264936e+00 0 0 0
238 1 1.8156928120968225e+00 -3.0061701316812648e+01 1.8074996229479960e+00 0 0 0
242 1 3.4322880373346520e+00 -2.6828492446608220e+01 1.8074996477910608e+00 0 0 0
244 1 2.6239909209310692e+00 -2.8445096607341739e+01 3.6149996442472894e+00 0 0 0
255 1 1.0072936822452381e+00 -2.7636794129351880e+01 1.8074996373914696e+00 0 0 0
232 1 6.6656839200015341e+00 -2.8445096598324120e+01 1.8074996369188110e+00 0 0 0
234 1 5.8573858166468620e+00 -3.0061701320858475e+01 3.6149996271989457e+00 0 0 0
236 1 7.4739810387227159e+00 -2.6828492441711891e+01 3.6149996503233912e+00 0 0 0
241 1 4.2406879634075914e+00 -2.9253398723956973e+01 1.8074996238053238e+00 0 0 0
243 1 5.0489866828887147e+00 -2.7636794127070161e+01 3.6149996437168910e+00 0 0 0
235 1 1.9889222463461376e-01 -2.5211887701788282e+01 1.8074996660651352e+00 0 0 0
256 1 1.8155909382257016e+00 -2.6020190143249103e+01 3.6149996551097736e+00 0 0 0
257 1 2.6238869967583431e+00 -2.4403585436956366e+01 1.8074996819990816e+00 0 0 0
260 1 1.0071883483922093e+00 -2.3595283839963013e+01 3.6149996819427503e+00 0 0 0
245 1 5.8572839389672886e+00 -2.6020190147628831e+01 1.8074996571295521e+00 0 0 0
246 1 5.0488813468993969e+00 -2.3595283848988490e+01 1.8074996861095778e+00 0 0 0
247 1 6.6655799975121264e+00 -2.4403585432531855e+01 3.6149996724077353e+00 0 0 0
248 1 4.2405852179787944e+00 -2.5211887706300111e+01 3.6149996547438201e+00 0 0 0
251 1 1.9878740382415747e-01 -2.1170378883877316e+01 3.6149997262272437e+00 0 0 0
258 1 1.8154858968071503e+00 -2.1978680616985180e+01 1.8074997089297291e+00 0 0 0
259 1 3.4321837787505491e+00 -2.2786982098938935e+01 3.6149996930810846e+00 0 0 0
264 1 2.6237809249689836e+00 -2.0362077590055378e+01 3.6149997422902822e+00 0 0 0
275 1 1.0070837353100417e+00 -1.9553777717113558e+01 1.8074997617811899e+00 0 0 0
249 1 7.4738767865499920e+00 -2.2786982097465760e+01 1.8074996907824992e+00 0 0 0
250 1 6.6654739224517394e+00 -2.0362077584849480e+01 1.8074997376388038e+00 0 0 0
252 1 5.8571788996332197e+00 -2.1978680619303692e+01 3.6149997135127236e+00 0 0 0
261 1 4.2404803992136539e+00 -2.1170378878959770e+01 1.8074997259314225e+00 0 0 0
263 1 5.0487767394211849e+00 -1.9553777725456964e+01 3.6149997665959921e+00 0 0 0
253 1 1.9868033000474222e-01 -1.7128873992521186e+01 1.8074998202687587e+00 0 0 0
262 1 3.4320765423908219e+00 -1.8745471771086930e+01 1.8074997760504550e+00 0 0 0
276 1 1.8153796595920355e+00 -1.7937173178493484e+01 3.6149997951296449e+00 0 0 0
277 1 2.6236707004126800e+00 -1.6320557560666678e+01 1.8074998271264251e+00 0 0 0
280 1 1.0069820337202764e+00 -1.5512270735047709e+01 3.6149998524331530e+00 0 0 0
254 1 7.4737695380732667e+00 -1.8745471762809821e+01 3.6149997702429970e+00 0 0 0
265 1 5.8570726600357572e+00 -1.7937173183316581e+01 1.8074998033195175e+00 0 0 0
266 1 5.0486750463271681e+00 -1.5512270743712731e+01 1.8074998488854817e+00 0 0 0
267 1 6.6653637001583554e+00 -1.6320557549623906e+01 3.6149998254033653e+00 0 0 0
268 1 4.2403733349803243e+00 -1.7128874004899174e+01 3.6149998171402888e+00 0 0 0
271 1 1.9860907130158811e-01 -1.3087396986931569e+01 3.6149998855170238e+00 0 0 0
278 1 1.8152567310641767e+00 -1.3895610947256479e+01 1.8074998720348989e+00 0 0 0
279 1 3.4319670849607049e+00 -1.4703980775484391e+01 3.6149998617729580e+00 0 0 0
284 1 2.6235482598735276e+00 -1.2279123913137283e+01 3.6149998826115075e+00 0 0 0
293 1 1.0068108739329806e+00 -1.1470520039801734e+01 1.8074999037425641e+00 0 0 0
269 1 7.4736600856731474e+00 -1.4703980764679496e+01 1.8074998542533611e+00 0 0 0
270 1 6.6652412411913016e+00 -1.2279123887711640e+01 1.8074998883377291e+00 0 0 0
272 1 5.8569497314148151e+00 -1.3895610928207164e+01 3.6149998738110560e+00 0 0 0
281 1 4.2403020780309388e+00 -1.3087396985068658e+01 1.8074998832101878e+00 0 0 0
283 1 5.0485038702638816e+00 -1.1470520020588152e+01 3.6149998885452876e+00 0 0 0
273 1 1.9824485754012386e-01 -9.0447531972759219e+00 1.8074999171237875e+00 0 0 0
282 1 3.4320333580518643e+00 -1.0662687788974480e+01 1.8074999112350403e+00 0 0 0
294 1 1.8150264579644497e+00 -9.8543825692053879e+00 3.6149999062936971e+00 0 0 0
295 1 2.6242731404322006e+00 -8.2388869509281832e+00 1.8074999202616548e+00 0 0 0
274 1 7.4737263491119714e+00 -1.0662687785372389e+01 3.6149999037619245e+00 0 0 0
285 1 5.8567194407839214e+00 -9.8543825363537554e+00 1.8074999081085428e+00 0 0 0
287 1 6.6659661361610700e+00 -8.2388869346506048e+00 3.6149999254252569e+00 0 0 0
288 1 4.2399378494025193e+00 -9.0447531754338755e+00 3.6149999159150297e+00 0 0 0
291 1 1.9361096568772615e-01 -5.0051067779468514e+00 3.6149999695821129e+00 0 0 0
296 1 1.8187639932819524e+00 -5.8199888936473458e+00 1.8074999557309501e+00 0 0 0
297 1 3.4310788870549684e+00 -6.6159210300060147e+00 3.6149999563776563e+00 0 0 0
298 1 1.0059393717516125e+00 -7.4298811130677995e+00 3.6149999360779423e+00 0 0 0
301 1 2.6215806031025788e+00 -4.1742072223514652e+00 3.6149999864169917e+00 0 0 0
286 1 5.0476323588476655e+00 -7.4298810616665012e+00 1.8074999285162396e+00 0 0 0
289 1 7.4727719013584171e+00 -6.6159210805757374e+00 1.8074999487322982e+00 0 0 0
290 1 6.6632735958310834e+00 -4.1742072780673531e+00 1.8074999926505322e+00 0 0 0
292 1 5.8604569773575443e+00 -5.8199888533216804e+00 3.6149999567757121e+00 0 0 0
299 1 4.2353039347279182e+00 -5.0051066837320155e+00 1.8074999732106141e+00 0 0 0
302 1 1.0214161574996647e+00 -3.4262423902252355e+00 1.8075000031462893e+00 0 0 0
352 1 2.3045605219816453e-01 -1.1231027027193037e+00 1.8075000180164082e+00 0 0 0
370 1 1.8238941124719266e+00 -1.6756460746226294e+00 4.5556460409580865e-08 0 0 1
372 1 3.4059858268741849e+00 -2.5768637607671239e+00 1.8075000158150543e+00 0 0 0
300 1 5.0631091251238818e+00 -3.4262423275797964e+00 3.6149999975712270e+00 0 0 0
351 1 7.4476788602866524e+00 -2.5768639024505267e+00 2.1989207817806329e-08 0 0 1
356 1 5.8655871084379649e+00 -1.6756461615164153e+00 1.8075000384169511e+00 0 0 0
369 1 4.2721490982922461e+00 -1.1231025868346245e+00 2.7064896375153911e-08 0 0 1
360 1 3.1751306052138153e+00 2.6000467719884210e+00 1.8075002030104219e+00 0 0 0
371 1 2.6131132222445697e+00 8.2787335668434126e-04 1.8075001149370042e+00 0 0 0
373 1 1.6005341081258067e+00 1.6316524490845845e+00 1.7869804168898379e-07 0 0 1
374 1 8.0018914583330503e-01 3.4439679978114830e+00 1.8075002175705124e+00 0 0 0
375 1 1.4037101428278544e-03 1.1664127626531633e+00 1.8075001918232743e+00 0 0 0
331 1 7.2168235198060779e+00 2.6000465788306899e+00 2.0271475083778998e-07 0 0 1
353 1 6.6548064024704106e+00 8.2767751888332798e-04 1.2012447639691268e-07 0 0 1
354 1 4.0430965595219890e+00 1.1664128481357401e+00 1.8934578597161164e-07 0 0 1
355 1 5.6422271108322670e+00 1.6316520596080102e+00 1.8075001868641161e+00 0 0 0
357 1 4.8418821652941828e+00 3.4439679924058284e+00 2.2060500024736354e-07 0 0 1
358 1 2.3939360648599153e+00 4.1798381785579259e+00 2.2311107532160126e-07 0 0 1
359 1 4.0095936442466122e+00 5.0202857476770220e+00 1.8075002372368820e+00 0 0 0
361 1 3.2049462520040755e+00 6.6268449048835727e+00 2.5947298080590102e-07 0 0 1
362 1 7.8033233994336204e-01 7.4430416568150823e+00 2.7926339057900837e-07 0 0 1
364 1 1.5941454272337436e+00 5.8334213366678487e+00 1.8075002494385244e+00 0 0 0
332 1 5.6358384379458082e+00 5.8334213218817190e+00 2.5406292973387964e-07 0 0 1
333 1 7.2466392152983197e+00 6.6268447955560559e+00 1.8075002624584482e+00 0 0 0
334 1 6.4356290266471872e+00 4.1798379984918794e+00 1.8075002238882472e+00 0 0 0
338 1 4.8220253710651955e+00 7.4430417177097707e+00 1.8075002802628974e+00 0 0 0
376 1 8.0512865978589669e+00 5.0202856419361570e+00 2.3489423362852035e-07 0 0 1
336 1 4.0142221572001988e+00 9.0569175491373954e+00 2.9660503343805822e-07 0 0 0
342 1 3.2064853481802449e+00 1.0675168121681510e+01 1.8075003145745088e+00 0 0 0
363 1 2.3988930067817273e+00 8.2514674265940187e+00 1.8075002860013039e+00 0 0 0
365 1 1.5894464551197729e+00 9.8670224218439202e+00 3.0663129180144628e-07 0 0 0
313 1 7.2481783531978152e+00 1.0675168091375209e+01 3.1895704936540512e-07 0 0 0
335 1 6.4405860091949734e+00 8.2514673912248355e+00 2.9033997654625934e-07 0 0 1
337 1 5.6311394850096486e+00 9.8670224560706341e+00 1.8075003081719687e+00 0 0 0
367 1 8.0559151443301413e+00 9.0569174932956322e+00 1.8075002992403701e+00 0 0 0
340 1 2.3979655378752063e+00 1.2291637079358921e+01 3.3183868284046328e-07 0 0 0
341 1 4.0147221747788926e+00 1.3099869823945530e+01 1.8075003224219359e+00 0 0 0
343 1 3.2063815999857348e+00 1.4716463319146737e+01 3.2982119830668064e-07 0 0 0
346 1 1.5896631419957519e+00 1.3908074370532162e+01 1.8075003280998192e+00 0 0 0
366 1 7.8119324472515805e-01 1.1482935063275423e+01 1.8075003258984692e+00 0 0 0
314 1 5.6313561442766540e+00 1.3908074398919396e+01 3.2864441090275058e-07 0 0 0
315 1 7.2480745907307158e+00 1.4716463328640163e+01 1.8075003348384897e+00 0 0 0
316 1 6.4396585452699933e+00 1.2291637091696378e+01 1.8075003306114239e+00 0 0 0
339 1 4.8228862547091751e+00 1.1482935107987087e+01 3.2622440161294972e-07 0 0 0
368 1 8.0564151768890877e+00 1.3099869814053193e+01 3.3100412469270351e-07 0 0 0
318 1 4.0147870459619641e+00 1.7141348009388331e+01 3.2451768161578798e-07 0 0 0
324 1 3.2064894838247446e+00 1.8757942789229780e+01 1.8075003286680376e+00 0 0 0
344 1 7.8139679274758189e-01 1.5524743158227036e+01 3.2923929209979406e-07 0 0 0
345 1 2.3980826732074845e+00 1.6333028098876266e+01 1.8075003316531997e+00 0 0 0
347 1 1.5897935225291837e+00 1.7949644547241903e+01 3.2173757835707306e-07 0 0 0
304 1 7.2481824922189855e+00 1.8757942785802403e+01 3.3143459221562921e-07 0 0 0
317 1 6.4397756731631528e+00 1.6333028104936691e+01 3.2803238862541793e-07 0 0 0
319 1 5.6314865370575165e+00 1.7949644560774768e+01 1.8075003219176558e+00 0 0 0
320 1 4.8230897904396919e+00 1.5524743160672603e+01 1.8075003285195572e+00 0 0 0
349 1 8.0564800562720631e+00 1.7141348023200681e+01 1.8075003269280958e+00 0 0 0
322 1 2.3981963189213773e+00 2.0374549483942019e+01 3.2880572486959636e-07 0 0 0
323 1 4.0148968045984592e+00 2.1182850414793148e+01 1.8075003469825508e+00 0 0 0
328 1 1.5899061827409782e+00 2.1991153648755748e+01 1.8075003476319096e+00 0 0 0
348 1 7.8149678991731031e-01 1.9566249412005554e+01 1.8075003295451870e+00 0 0 0
305 1 5.6315991829960934e+00 2.1991153657430367e+01 3.4233911438974474e-07 0 0 0
307 1 6.4398893226502798e+00 2.0374549487186538e+01 1.8075003348622218e+00 0 0 0
321 1 4.8231897864330433e+00 1.9566249414995848e+01 3.2460017029833921e-07 0 0 0
350 1 8.0565898088769341e+00 2.1182850419243703e+01 3.4395020787059138e-07 0 0 0
309 1 4.0150146092956680e+00 2.5224359403850180e+01 4.0820184965539852e-07 0 0 0
325 1 3.2066056487173022e+00 2.2799455036292773e+01 3.6437320671822704e-07 0 0 0
326 1 7.8161253366523165e-01 2.3607756328654084e+01 3.7295736854403572e-07 0 0 0
327 1 2.3983136965723633e+00 2.4416057652826321e+01 1.8075003884124701e+00 0 0 0
329 1 1.5900239494878137e+00 2.6032660285353789e+01 4.1941263750899793e-07 0 0 0
306 1 7.2482986385538926e+00 2.2799455031977349e+01 1.8075003681901425e+00 0 0 0
308 1 6.4400066952621904e+00 2.4416057651980708e+01 3.8593746687354269e-07 0 0 0
310 1 5.6317169507708691e+00 2.6032660286431263e+01 1.8075004140960740e+00 0 0 0