LAMMPS data file via write_data, version 15 May 2015, timestep = 639

1040 atoms
5 atom types

0.0000000000000000e+00 1.3034068000000000e+01 xlo xhi
-1.3056823612993543e+02 1.3056823612993543e+02 ylo yhi
0.0000000000000000e+00 3.6150000000000002e+00 zlo zhi

Atoms # atomic

14 1 3.0338178331876877e+00 -1.2928154298683822e+02 1.3556252760632419e+00 0 0 0
18 1 4.0448014310327567e+00 -1.2781534562703118e+02 3.1631253134656498e+00 0 0 0
33 1 4.8468765062896801e-01 -1.2941736583259791e+02 1.3556252991777815e+00 0 0 0
34 1 1.5200907831173602e+00 -1.2808727639024571e+02 3.1631253164695226e+00 0 0 0
940 1 1.8455339092732417e+00 -1.3056819784386622e+02 3.1631252383056707e+00 0 0 0
3 1 8.0371247852071210e+00 -1.2808727642523127e+02 1.3556253188355269e+00 0 0 0
5 1 7.0017216362938601e+00 -1.2941736585542498e+02 3.1631253043883820e+00 0 0 0
15 1 5.4825688556099053e+00 -1.2884469211473106e+02 1.3556253056462748e+00 0 0 0
17 1 6.4891814458793160e+00 -1.2708759499969435e+02 3.1631253420287733e+00 0 0 0
921 1 8.3625679057505273e+00 -1.3056819788196242e+02 1.3556252389475381e+00 0 0 0
939 1 4.5318969088357468e+00 -1.3056819786050355e+02 3.1631252400814160e+00 0 0 0
1 1 1.3006215436566213e+01 -1.2708759496898674e+02 1.3556253348296567e+00 0 0 0
2 1 1.1999602856425227e+01 -1.2884469213531210e+02 3.1631253011336793e+00 0 0 0
4 1 9.5508518382438599e+00 -1.2928154301779824e+02 3.1631252792525348e+00 0 0 0
6 1 1.0561835440358600e+01 -1.2781534565811488e+02 1.3556253110341132e+00 0 0 0
912 1 1.1048930910928435e+01 -1.3056819787555165e+02 1.3556252392778314e+00 0 0 0
35 1 2.5305424740997311e+00 -1.2671435422136597e+02 1.3556253340928570e+00 0 0 0
36 1 2.0150620736395699e+00 -1.2419192364824332e+02 1.3556253726965499e+00 0 0 0
37 1 3.5234084419580118e+00 -1.2523731022485872e+02 3.1631253568226532e+00 0 0 0
38 1 1.0031335331091027e+00 -1.2563862076914417e+02 3.1631253541058157e+00 0 0 0
59 1 5.0169959245501705e-01 -1.2316080339078147e+02 3.1631253891279454e+00 0 0 0
16 1 5.0072203065780698e+00 -1.2623801372058075e+02 1.3556253445572519e+00 0 0 0
19 1 7.5201675464772260e+00 -1.2563862081006287e+02 1.3556253578108826e+00 0 0 0
20 1 7.0187336013420660e+00 -1.2316080342943346e+02 1.3556253933398636e+00 0 0 0
21 1 8.5320960842346096e+00 -1.2419192368763747e+02 3.1631253755821409e+00 0 0 0
22 1 6.0046923528753657e+00 -1.2465032657735418e+02 3.1631253713227174e+00 0 0 0
39 1 4.5110029473923339e+00 -1.2370177887972339e+02 1.3556253837618166e+00 0 0 0
7 1 1.0040442445867535e+01 -1.2523731024990275e+02 1.3556253566695891e+00 0 0 0
8 1 1.1524254309694795e+01 -1.2623801372800389e+02 3.1631253425145269e+00 0 0 0
9 1 9.0475764815916051e+00 -1.2671435426103733e+02 3.1631253362309857e+00 0 0 0
10 1 1.2521726346592917e+01 -1.2465032655756445e+02 1.3556253679394632e+00 0 0 0
12 1 1.1028036944057755e+01 -1.2370177887884185e+02 3.1631253804598933e+00 0 0 0
40 1 4.0113991892602971e+00 -1.2118475273576875e+02 1.3556254224252826e+00 0 0 0
42 1 3.0143936158742926e+00 -1.2270128968581906e+02 3.1631253979427343e+00 0 0 0
60 1 1.5087513849251009e+00 -1.2168037471183951e+02 1.3556254125277658e+00 0 0 0
62 1 2.5101740426223071e+00 -1.2018283818412988e+02 3.1631254368018573e+00 0 0 0
26 1 8.0257853919273039e+00 -1.2168037474453109e+02 3.1631254158223308e+00 0 0 0
41 1 5.5111579100478592e+00 -1.2216805966108174e+02 3.1631254096676238e+00 0 0 0
43 1 6.5179038624206047e+00 -1.2066738083600787e+02 1.3556254325311157e+00 0 0 0
46 1 5.0128953106307854e+00 -1.1966971997972007e+02 3.1631254484888522e+00 0 0 0
11 1 1.2028191901805229e+01 -1.2216805963577448e+02 1.3556254048347138e+00 0 0 0
13 1 8.6985345052781327e-04 -1.2066738080199814e+02 3.1631254295784319e+00 1 0 0
23 1 9.5314276207074684e+00 -1.2270128970784303e+02 1.3556253961075171e+00 0 0 0
24 1 9.0272080439861799e+00 -1.2018283819956791e+02 1.3556254392054907e+00 0 0 0
25 1 1.0528433186863753e+01 -1.2118475273160662e+02 3.1631254208709172e+00 0 0 0
27 1 1.1529929303701401e+01 -1.1966971995898678e+02 1.3556254454484640e+00 0 0 0
61 1 1.0054472642922319e+00 -1.1917267088711556e+02 1.3556254538446089e+00 0 0 0
63 1 3.5106072170244738e+00 -1.1867420572607938e+02 1.3556254641056511e+00 0 0 0
64 1 3.0094158158799087e+00 -1.1616608385000355e+02 1.3556255027400921e+00 0 0 0
66 1 2.0076615086745191e+00 -1.1767167362617404e+02 3.1631254795440178e+00 0 0 0
85 1 5.0334980076955227e-01 -1.1666602297633948e+02 1.3556254940849051e+00 0 0 0
44 1 6.0169585473328757e+00 -1.1816639030198844e+02 1.3556254746356440e+00 0 0 0
45 1 7.5224812696949339e+00 -1.1917267091332130e+02 3.1631254557440442e+00 0 0 0
47 1 8.5246955097290531e+00 -1.1767167363907407e+02 1.3556254802038263e+00 0 0 0
50 1 7.0203838042572215e+00 -1.1666602299788782e+02 3.1631254982242294e+00 0 0 0
65 1 4.5127074632446798e+00 -1.1716603598798801e+02 3.1631254893917902e+00 0 0 0
67 1 5.5158177969608797e+00 -1.1566215193387994e+02 1.3556255114127131e+00 0 0 0
28 1 1.1029741457485862e+01 -1.1716603596966178e+02 1.3556254870480406e+00 0 0 0
29 1 1.2533992539348299e+01 -1.1816639027295302e+02 3.1631254696672970e+00 0 0 0
30 1 1.0027641212473878e+01 -1.1867420571938227e+02 3.1631254629197882e+00 0 0 0
32 1 1.2032851792023475e+01 -1.1566215191013303e+02 3.1631255097464384e+00 0 0 0
49 1 9.5264498119008714e+00 -1.1616608384504643e+02 3.1631255037772505e+00 0 0 0
70 1 4.0117867377206951e+00 -1.1466053769219504e+02 3.1631255250728865e+00 0 0 0
86 1 1.5058306511790791e+00 -1.1516341129581510e+02 3.1631255165361538e+00 0 0 0
87 1 2.5080959814806874e+00 -1.1365893862780177e+02 1.3556255385483478e+00 0 0 0
89 1 3.5105832085352713e+00 -1.1215441501271539e+02 3.1631255583696496e+00 0 0 0
90 1 1.0042715847526251e+00 -1.1265627553501783e+02 3.1631255502597266e+00 0 0 0
48 1 8.0228646508036974e+00 -1.1516341130626896e+02 1.3556255186982038e+00 0 0 0
68 1 5.0145567450100588e+00 -1.1315658515126269e+02 1.3556255465681768e+00 0 0 0
69 1 6.5187487832155862e+00 -1.1415960705499802e+02 3.1631255326940506e+00 0 0 0
71 1 7.5213055827604611e+00 -1.1265627554105716e+02 1.3556255532470440e+00 0 0 0
74 1 6.0172768151066016e+00 -1.1165321353387023e+02 3.1631255649090093e+00 0 0 0
31 1 1.7147823461289846e-03 -1.1415960703880256e+02 1.3556255300295574e+00 1 0 0
51 1 1.0528820733078897e+01 -1.1466053767884316e+02 1.3556255245887374e+00 0 0 0
52 1 1.0027617205088591e+01 -1.1215441500368252e+02 1.3556255570663822e+00 0 0 0
53 1 1.1531590741673988e+01 -1.1315658513597083e+02 3.1631255439925909e+00 0 0 0
54 1 9.0251299777475786e+00 -1.1365893862479358e+02 3.1631255380297816e+00 0 0 0
55 1 1.2534310814525259e+01 -1.1165321352314602e+02 1.3556255631404814e+00 0 0 0
88 1 2.0067306793245683e+00 -1.1115220249235131e+02 1.3556255679353848e+00 0 0 0
92 1 4.0118795224823671e+00 -1.0814417722523989e+02 1.3556256090969643e+00 0 0 0
94 1 3.0092730370219050e+00 -1.0964807961021208e+02 3.1631255876418201e+00 0 0 0
109 1 5.0282136783756970e-01 -1.1014957187256516e+02 3.1631255811282304e+00 0 0 0
110 1 1.5053590643211812e+00 -1.0864563803168254e+02 1.3556256018606854e+00 0 0 0
72 1 7.0198553667017558e+00 -1.1014957187675849e+02 1.3556255826604333e+00 0 0 0
73 1 8.5237646765740269e+00 -1.1115220249148548e+02 3.1631255721224871e+00 0 0 0
78 1 8.0223930630555422e+00 -1.0864563803446541e+02 3.1631256008760662e+00 0 0 0
91 1 4.5132299455390132e+00 -1.1065048643268429e+02 1.3556255764083975e+00 0 0 0
93 1 5.5158689404307788e+00 -1.0914680419272320e+02 3.1631255968114163e+00 0 0 0
56 1 1.2032902940066352e+01 -1.0914680418532782e+02 1.3556255931400272e+00 0 0 0
57 1 1.1030263943931024e+01 -1.1065048642444773e+02 3.1631255754272409e+00 0 0 0
75 1 9.5263070347717935e+00 -1.0964807960611979e+02 1.3556255893380049e+00 0 0 0
77 1 1.0528913521376435e+01 -1.0814417722328234e+02 3.1631256075716552e+00 0 0 0
111 1 1.0039838145617617e+00 -1.0613914415361377e+02 1.3556256335948842e+00 0 0 0
112 1 2.5079246713685279e+00 -1.0714167117236853e+02 3.1631256212241299e+00 0 0 0
113 1 3.5105131135567444e+00 -1.0563778597134241e+02 1.3556256411057157e+00 0 0 0
116 1 2.0065557132907244e+00 -1.0463523881953206e+02 3.1631256553442579e+00 0 0 0
95 1 6.5184532272320626e+00 -1.0764303135088079e+02 1.3556256168126348e+00 0 0 0
96 1 6.0170655065667455e+00 -1.0513655090638825e+02 1.3556256499884813e+00 0 0 0
97 1 7.5210178133891059e+00 -1.0613914415583470e+02 3.1631256366887386e+00 0 0 0
98 1 5.0144835906559955e+00 -1.0664037841907755e+02 3.1631256285706484e+00 0 0 0
99 1 8.5235897117216854e+00 -1.0463523881952943e+02 1.3556256549379475e+00 0 0 0
115 1 4.5131005819877261e+00 -1.0413394430057193e+02 3.1631256625218356e+00 0 0 0
58 1 1.4192280976974558e-03 -1.0764303134778716e+02 3.1631256138578254e+00 1 0 0
76 1 9.0249586697604531e+00 -1.0714167117226253e+02 1.3556256221720955e+00 0 0 0
79 1 1.1531517590178499e+01 -1.0664037841629603e+02 1.3556256276702077e+00 0 0 0
80 1 1.1030134581146788e+01 -1.0413394430146164e+02 1.3556256624003793e+00 0 0 0
81 1 1.2534099507242967e+01 -1.0513655090651818e+02 3.1631256461508586e+00 0 0 0
82 1 1.0027547112470305e+01 -1.0563778597230883e+02 3.1631256423180965e+00 0 0 0
114 1 3.0091358478028574e+00 -1.0313136362014455e+02 1.3556256766143833e+00 0 0 0
120 1 4.0117152980756670e+00 -1.0162750605949968e+02 3.1631256945407746e+00 0 0 0
124 1 5.0260287093750833e-01 -1.0363267977395583e+02 1.3556256677870651e+00 0 0 0
125 1 1.5051761564412089e+00 -1.0212879925292761e+02 3.1631256856736569e+00 0 0 0
126 1 2.5077550067522743e+00 -1.0062492899720058e+02 1.3556257049438962e+00 0 0 0
100 1 8.0222101548897538e+00 -1.0212879925169766e+02 1.3556256913445552e+00 0 0 0
102 1 7.0196368697205882e+00 -1.0363267977249075e+02 3.1631256700134651e+00 0 0 0
117 1 5.5156781397968189e+00 -1.0263009486655740e+02 1.3556256832649736e+00 0 0 0
119 1 6.5182526890183050e+00 -1.0112622857546533e+02 3.1631257012077132e+00 0 0 0
83 1 1.2186892938128580e-03 -1.0112622858027527e+02 1.3556256981415895e+00 1 0 0
84 1 1.2032712139163623e+01 -1.0263009486909407e+02 3.1631256816455573e+00 0 0 0
101 1 9.5261698459701929e+00 -1.0313136362064635e+02 3.1631256746423997e+00 0 0 0
103 1 1.0528749296461330e+01 -1.0162750606260686e+02 1.3556256930839992e+00 0 0 0
106 1 9.0247890045890919e+00 -1.0062492899719719e+02 3.1631257056204025e+00 0 0 0
127 1 2.0063762183929916e+00 -9.8118489357284048e+01 1.3556257281945514e+00 0 0 0
128 1 3.5103356837393540e+00 -9.9121064816641564e+01 3.1631257207904384e+00 0 0 0
129 1 1.0037967396751550e+00 -9.9622357142755192e+01 3.1631257152698140e+00 0 0 0
132 1 5.0241483465993675e-01 -9.7115913716822689e+01 3.1631257343578363e+00 0 0 0
148 1 3.0089511051710676e+00 -9.6614623241404828e+01 3.1631257389568446e+00 0 0 0
118 1 5.0142948560681475e+00 -1.0012364697127961e+02 1.3556257113959422e+00 0 0 0
121 1 7.5208307387602584e+00 -9.9622357139703581e+01 1.3556257145279520e+00 0 0 0
122 1 8.5234102168345593e+00 -9.8118489356709659e+01 3.1631257281817584e+00 0 0 0
123 1 6.0168733322566714e+00 -9.8619781002169077e+01 3.1631257245775446e+00 0 0 0
130 1 4.5129139418140900e+00 -9.7617201101821337e+01 1.3556257336099200e+00 0 0 0
131 1 7.0194488326556055e+00 -9.7115913709898237e+01 1.3556257375419172e+00 0 0 0
104 1 1.0027369683025922e+01 -9.9121064821695754e+01 1.3556257196882120e+00 0 0 0
105 1 1.1531328855432820e+01 -1.0012364697704155e+02 3.1631257088512261e+00 0 0 0
107 1 1.2533907333754881e+01 -9.8619781011043870e+01 1.3556257241153964e+00 0 0 0
108 1 1.1029947942314426e+01 -9.7617201111151743e+01 3.1631257306497744e+00 0 0 0
136 1 9.5259851042819772e+00 -9.6614623246473457e+01 1.3556257378299694e+00 0 0 0
146 1 4.0115236127865224e+00 -9.5110758263904401e+01 1.3556257473857023e+00 0 0 0
166 1 1.5049882532547005e+00 -9.5612048265294121e+01 1.3556257448238638e+00 0 0 0
167 1 1.0035980170819554e+00 -9.3105606112637062e+01 1.3556257564973906e+00 0 0 0
168 1 2.5075600211880107e+00 -9.4108182447160914e+01 3.1631257534555672e+00 0 0 0
139 1 8.0220222520549562e+00 -9.5612048262448781e+01 3.1631257446651682e+00 0 0 0
147 1 5.5154866927172277e+00 -9.6113335639557349e+01 3.1631257429579946e+00 0 0 0
149 1 6.5180588605394636e+00 -9.4609470785733464e+01 1.3556257505711462e+00 0 0 0
151 1 7.5206320174078041e+00 -9.3105606108065530e+01 3.1631257605678349e+00 0 0 0
152 1 5.0140959246615369e+00 -9.3606892717381214e+01 3.1631257567757407e+00 0 0 0
133 1 1.2032520693825807e+01 -9.6113335651121147e+01 1.3556257399357359e+00 0 0 0
134 1 1.0248612540575408e-03 -9.4609470795348656e+01 3.1631257493214493e+00 1 0 0
137 1 9.0245940213758367e+00 -9.4108182448892506e+01 1.3556257531910243e+00 0 0 0
138 1 1.0528557612866878e+01 -9.5110758273408422e+01 3.1631257474678058e+00 0 0 0
140 1 1.1531129925067582e+01 -9.3606892727713543e+01 1.3556257555491469e+00 0 0 0
169 1 3.5101342299418250e+00 -9.2604316563546931e+01 1.3556257624773644e+00 0 0 0
170 1 3.0087514667474458e+00 -9.0097873695846744e+01 1.3556257747057556e+00 0 0 0
172 1 2.0061740870831248e+00 -9.1601740012749318e+01 3.1631257658653857e+00 0 0 0
191 1 5.0221461399426492e-01 -9.0599161488345558e+01 1.3556257724832284e+00 0 0 0
192 1 1.5047914230467287e+00 -8.9095295604939551e+01 3.1631257804176207e+00 0 0 0
150 1 6.0166712443989869e+00 -9.2103027402180189e+01 1.3556257653400530e+00 0 0 0
153 1 8.5232080873313212e+00 -9.1601740013287682e+01 1.3556257677905328e+00 0 0 0
154 1 8.0218254238959172e+00 -8.9095295602904031e+01 1.3556257824904772e+00 0 0 0
156 1 7.0192486147219650e+00 -9.0599161483290615e+01 3.1631257729587743e+00 0 0 0
171 1 4.5127117670258690e+00 -9.1100449932478881e+01 3.1631257696100876e+00 0 0 0
173 1 5.5152887408150484e+00 -8.9596583192981242e+01 1.3556257779843937e+00 0 0 0
141 1 1.1029745767404899e+01 -9.1100449941405188e+01 1.3556257695264382e+00 0 0 0
142 1 1.2533705244818242e+01 -9.2103027411679463e+01 3.1631257633599978e+00 0 0 0
143 1 1.0027168231223939e+01 -9.2604316571020036e+01 3.1631257600708254e+00 0 0 0
145 1 1.2032322740250919e+01 -8.9596583201125952e+01 3.1631257787759139e+00 0 0 0
155 1 9.5257854670817803e+00 -9.0097873701447313e+01 3.1631257764499470e+00 0 0 0
176 1 4.0113281300193551e+00 -8.8594007039115027e+01 3.1631257856281771e+00 0 0 0
193 1 2.5073671339463970e+00 -8.7591430278377231e+01 1.3556257892950907e+00 0 0 0
195 1 3.5099409575623017e+00 -8.6087564110303447e+01 3.1631257967713315e+00 0 0 0
196 1 1.0034056455181644e+00 -8.6588851279677201e+01 3.1631257948260001e+00 0 0 0
174 1 5.0139037356684719e+00 -8.7090140461217644e+01 1.3556257937464031e+00 0 0 0
175 1 6.5178650374343974e+00 -8.8092716693538577e+01 3.1631257872622118e+00 0 0 0
177 1 7.5204396458111509e+00 -8.6588851273570114e+01 1.3556257950948321e+00 0 0 0
180 1 6.0164772230676924e+00 -8.5586273795143484e+01 3.1631258002323581e+00 0 0 0
144 1 8.3103634350756295e-04 -8.8092716699699679e+01 1.3556257867872121e+00 1 0 0
157 1 1.0528362129184076e+01 -8.8594007044697463e+01 1.3556257832776533e+00 0 0 0
158 1 1.0026974956289529e+01 -8.6087564108047104e+01 1.3556257978162343e+00 0 0 0
159 1 1.1530937733776687e+01 -8.7090140465254748e+01 3.1631257913807191e+00 0 0 0
160 1 9.0244011340234582e+00 -8.7591430277246857e+01 3.1631257903440644e+00 0 0 0
161 1 1.2533511221677244e+01 -8.5586273801083721e+01 1.3556257993560619e+00 0 0 0
194 1 2.0059796195335888e+00 -8.5084985810766327e+01 1.3556258008686792e+00 0 0 0
198 1 4.0111240423033863e+00 -8.2077254278355326e+01 1.3556258084040924e+00 0 0 0
200 1 3.0085546948333133e+00 -8.3581120117482385e+01 3.1631258060206306e+00 0 0 0
217 1 5.0201849882684513e-01 -8.4082407520865402e+01 3.1631258050126454e+00 0 0 0
218 1 1.5045900507815040e+00 -8.2578541348800925e+01 1.3556258081904176e+00 0 0 0
178 1 7.0190524986971781e+00 -8.4082407510912034e+01 1.3556258050802619e+00 0 0 0
179 1 8.5230136180551490e+00 -8.5084985801957600e+01 3.1631258023366766e+00 0 0 0
184 1 8.0216240485638366e+00 -8.2578541334833531e+01 3.1631258085709058e+00 0 0 0
197 1 4.5125163502272150e+00 -8.4583698007021439e+01 1.3556258044136951e+00 0 0 0
199 1 5.5150887456086215e+00 -8.3079830723884243e+01 3.1631258089165435e+00 0 0 0
201 1 6.5176574613008444e+00 -8.1575963922091773e+01 1.3556258104998129e+00 0 0 0
162 1 1.2032122744518624e+01 -8.3079830729677781e+01 1.3556258055828747e+00 0 0 0
163 1 1.1029550348166405e+01 -8.4583698005694970e+01 3.1631258023888886e+00 0 0 0
164 1 6.2346185031358914e-04 -8.1575963934320839e+01 3.1631258079739237e+00 1 0 0
181 1 9.5255886916261829e+00 -8.3581120109256574e+01 1.3556258069491547e+00 0 0 0
183 1 1.0528158038652442e+01 -8.2077254274601657e+01 3.1631258096344799e+00 0 0 0
219 1 1.0031888015206849e+00 -8.0072098618528685e+01 1.3556258083736745e+00 0 0 0
220 1 2.5071573512052630e+00 -8.1074676413863870e+01 3.1631258082880662e+00 0 0 0
221 1 3.5097208799095108e+00 -7.9570809895252239e+01 1.3556258080299231e+00 0 0 0
224 1 2.0057494181389823e+00 -7.8568232685821457e+01 3.1631258075851116e+00 0 0 0
202 1 6.0162517669475193e+00 -7.9069520477398001e+01 1.3556258103777727e+00 0 0 0
203 1 7.5202227988878150e+00 -8.0072098601616844e+01 3.1631258096252544e+00 0 0 0
204 1 5.0136901997336221e+00 -8.0573386660307150e+01 3.1631258099434238e+00 0 0 0
205 1 8.5227834149203527e+00 -7.8568232669430373e+01 1.3556258076031693e+00 0 0 0
223 1 4.5122810147257892e+00 -7.8066943673313204e+01 3.1631258069723813e+00 0 0 0
182 1 9.0241913483920726e+00 -8.1074676401389198e+01 1.3556258105186172e+00 0 0 0
185 1 1.1530724198445744e+01 -8.0573386665529142e+01 1.3556258095076616e+00 0 0 0
186 1 1.1029315016033953e+01 -7.8066943675977427e+01 1.3556258059550974e+00 0 0 0
187 1 1.2533285768828392e+01 -7.9069520490075277e+01 3.1631258062122338e+00 0 0 0
188 1 1.0026754878370179e+01 -7.9570809887957822e+01 3.1631258091670076e+00 0 0 0
222 1 3.0083082436314874e+00 -7.7064367021212590e+01 1.3556258059806519e+00 0 0 0
228 1 4.0108670712575858e+00 -7.5560500418258087e+01 3.1631258030877580e+00 0 0 0
241 1 5.0177777765341924e-01 -7.7565654599210006e+01 1.3556258043080622e+00 0 0 0
242 1 1.5043362106529858e+00 -7.6061789926133585e+01 3.1631258026005864e+00 0 0 0
243 1 2.5068963045707098e+00 -7.4557923596746463e+01 1.3556258004247881e+00 0 0 0
206 1 8.0213702084433400e+00 -7.6061789908108992e+01 1.3556258039076032e+00 0 0 0
208 1 7.0188117739132005e+00 -7.7565654580324320e+01 3.1631258080429792e+00 0 0 0
225 1 5.5148395334100409e+00 -7.6563077024454387e+01 1.3556258047329350e+00 0 0 0
226 1 5.0134284338290520e+00 -7.4056634193315617e+01 1.3556258006268711e+00 0 0 0
227 1 6.5173985211910699e+00 -7.5059211593648925e+01 3.1631258019522095e+00 0 0 0
189 1 3.6452420982513445e-04 -7.5059211611640407e+01 1.3556258003001498e+00 1 0 0
190 1 1.2031873536259720e+01 -7.6563077036636173e+01 3.1631258035539989e+00 0 0 0
207 1 9.5253422420418925e+00 -7.7064367010978089e+01 3.1631258051601767e+00 0 0 0
209 1 1.0527901072886261e+01 -7.5560500420196803e+01 1.3556258021260543e+00 0 0 0
211 1 1.1530462436789639e+01 -7.4056634202771235e+01 3.1631257974414888e+00 0 0 0
212 1 9.0239303050314099e+00 -7.4557923586846812e+01 3.1631257989715902e+00 0 0 0
244 1 2.0054890741537790e+00 -7.2051479221991684e+01 1.3556257953534558e+00 0 0 0
245 1 3.5094583038188594e+00 -7.3054056377739684e+01 3.1631257974141822e+00 0 0 0
246 1 1.0029271603053560e+00 -7.3555346602297519e+01 3.1631257977077336e+00 0 0 0
250 1 3.0080527332346825e+00 -7.0547612085089540e+01 3.1631257938623971e+00 0 0 0
256 1 5.0151965572733126e-01 -7.1048902451754714e+01 3.1631257921861731e+00 0 0 0
229 1 7.5199611593864821e+00 -7.3555346588774555e+01 1.3556257983804116e+00 0 0 0
230 1 7.0185536552674881e+00 -7.1048902446266951e+01 1.3556257951232458e+00 0 0 0
231 1 8.5225230759512840e+00 -7.2051479217031925e+01 3.1631257964798305e+00 0 0 0
232 1 6.0159904448432817e+00 -7.2552768976451162e+01 3.1631257975321141e+00 0 0 0
247 1 4.5120203996564143e+00 -7.1550190458490789e+01 1.3556257944379273e+00 0 0 0
249 1 5.5145862644886599e+00 -7.0046325116875565e+01 3.1631257939982405e+00 0 0 0
210 1 1.0026492307210235e+01 -7.3054056378880389e+01 1.3556257957749702e+00 0 0 0
213 1 1.2533024447934212e+01 -7.2552768987263178e+01 1.3556257947574453e+00 0 0 0
214 1 1.2031620267241934e+01 -7.0046325119251534e+01 1.3556257910242289e+00 0 0 0
215 1 1.1029054403789583e+01 -7.1550190463235225e+01 3.1631257947192646e+00 0 0 0
233 1 9.5250867379837985e+00 -7.0547612086311858e+01 1.3556257927211168e+00 0 0 0
248 1 4.0106194561811748e+00 -6.9043745890895906e+01 1.3556257920523420e+00 0 0 0
257 1 1.5040859845635992e+00 -6.9545035113038992e+01 1.3556257912836864e+00 0 0 0
258 1 1.0026840918614743e+00 -6.7038590864123165e+01 1.3556257871386574e+00 0 0 0
259 1 2.5066519028256589e+00 -6.8041167656860139e+01 3.1631257900691176e+00 0 0 0
260 1 3.5092174695198652e+00 -6.6537301892337908e+01 1.3556257888023300e+00 0 0 0
236 1 8.0211199881115895e+00 -6.9545035113365572e+01 3.1631257909442980e+00 0 0 0
251 1 6.5171527379771481e+00 -6.8542458497503304e+01 1.3556257922532957e+00 0 0 0
253 1 7.5197180965292185e+00 -6.7038590870554017e+01 3.1631257919739335e+00 0 0 0
254 1 5.0131854159727496e+00 -6.7539880384758035e+01 3.1631257890119109e+00 0 0 0
216 1 1.1873663137862422e-04 -6.8542458496009573e+01 3.1631257891881925e+00 1 0 0
234 1 9.0236859084255538e+00 -6.8041167657048433e+01 1.3556257894841925e+00 0 0 0
235 1 1.0527653460820320e+01 -6.9043745891457206e+01 3.1631257897877005e+00 0 0 0
237 1 1.1530219417243604e+01 -6.7539880378706286e+01 1.3556257898736612e+00 0 0 0
240 1 1.0026251473487473e+01 -6.6537301889001014e+01 3.1631257884771613e+00 0 0 0
135 1 5.0128212855349474e-01 -6.4532146408568366e+01 1.3556257863315757e+00 0 0 0
262 1 2.0052494751107979e+00 -6.5534724237979006e+01 3.1631257872853147e+00 0 0 0
276 1 3.0078158375057846e+00 -6.4030858163426402e+01 1.3556257860344447e+00 0 0 0
280 1 4.0103814047771573e+00 -6.2526992405498703e+01 3.1631257837056399e+00 0 0 0
296 1 1.5038478913566775e+00 -6.3028279666404060e+01 3.1631257822418575e+00 0 0 0
165 1 7.0183161323552747e+00 -6.4532146425511272e+01 3.1631257846331882e+00 0 0 0
252 1 6.0157511801939849e+00 -6.6036013640150131e+01 1.3556257873528768e+00 0 0 0
255 1 8.5222834786606789e+00 -6.5534724241057432e+01 1.3556257874847020e+00 0 0 0
261 1 4.5117838332811520e+00 -6.5033435818988067e+01 3.1631257874654550e+00 0 0 0
265 1 8.0208818952749574e+00 -6.3028279675596998e+01 1.3556257854749072e+00 0 0 0
277 1 5.5143492169952042e+00 -6.3529569195746483e+01 1.3556257848163851e+00 0 0 0
238 1 1.1028817832969919e+01 -6.5033435804182176e+01 1.3556257860665377e+00 0 0 0
239 1 1.2532785178526996e+01 -6.6036013628753579e+01 3.1631257881655466e+00 0 0 0
264 1 1.2031383213995811e+01 -6.3529569173572142e+01 3.1631257847755285e+00 0 0 0
266 1 9.5248498392592076e+00 -6.4030858158459566e+01 3.1631257842090954e+00 0 0 0
268 1 1.0527415403986174e+01 -6.2526992385972811e+01 1.3556257827365494e+00 0 0 0
263 1 1.3033948570647221e+01 -6.2025701544781093e+01 1.3556257825049747e+00 -1 0 0
297 1 2.5064138509606835e+00 -6.1524414165315996e+01 1.3556257811960744e+00 0 0 0
298 1 2.0050129143531601e+00 -5.9017969596988578e+01 1.3556257755469605e+00 0 0 0
299 1 3.5089805777036975e+00 -6.0020547978541181e+01 3.1631257787115010e+00 0 0 0
300 1 1.0024470444111571e+00 -6.0521834930490108e+01 3.1631257806102751e+00 0 0 0
278 1 5.0129473262902593e+00 -6.1023124954497355e+01 1.3556257808029482e+00 0 0 0
279 1 6.5169145753479985e+00 -6.2025701568879171e+01 3.1631257829966546e+00 0 0 0
281 1 7.5194810478332643e+00 -6.0521834943566660e+01 1.3556257784140386e+00 0 0 0
283 1 8.5220469134629404e+00 -5.9017969592545334e+01 3.1631257759154234e+00 0 0 0
284 1 6.0155136601755466e+00 -5.9519257619096621e+01 3.1631257761976199e+00 0 0 0
269 1 1.0026014577176069e+01 -6.0020547959119803e+01 1.3556257778632133e+00 0 0 0
270 1 1.1529981323536871e+01 -6.1023124926940490e+01 3.1631257800154766e+00 0 0 0
271 1 9.0234478533637859e+00 -6.1524414160403111e+01 3.1631257823092449e+00 0 0 0
272 1 1.2532547657377590e+01 -5.9519257593524330e+01 1.3556257774659668e+00 0 0 0
275 1 1.3033702791497603e+01 -5.5508948448387081e+01 3.1631257669965014e+00 -1 0 0
302 1 4.0101370156760145e+00 -5.6010236481287514e+01 1.3556257664615516e+00 0 0 0
304 1 3.0075750160315646e+00 -5.7514103687131779e+01 3.1631257710473237e+00 0 0 0
321 1 5.0104287162287342e-01 -5.8015391066661159e+01 3.1631257717881001e+00 0 0 0
322 1 1.5036048855109354e+00 -5.6511525861031643e+01 1.3556257685262978e+00 0 0 0
324 1 2.5061662390117476e+00 -5.5007659648704582e+01 3.1631257633630265e+00 0 0 0
282 1 7.0180768729018714e+00 -5.8015391082303339e+01 1.3556257745017635e+00 0 0 0
288 1 8.0206388829692603e+00 -5.6511525859923360e+01 3.1631257691032650e+00 0 0 0
301 1 4.5115442438768030e+00 -5.8516680850413842e+01 1.3556257759572914e+00 0 0 0
303 1 5.5141061619421832e+00 -5.7012813474700785e+01 3.1631257709503653e+00 0 0 0
305 1 6.5166687921237374e+00 -5.5508948467292072e+01 1.3556257642005025e+00 0 0 0
273 1 1.2031140158984899e+01 -5.7012813448490839e+01 1.3556257698096492e+00 0 0 0
274 1 1.1028578240288166e+01 -5.8516680821799440e+01 3.1631257736599809e+00 0 0 0
285 1 9.5246090122506573e+00 -5.7514103669976741e+01 1.3556257726247305e+00 0 0 0
286 1 9.0232002359273498e+00 -5.5007659636623515e+01 1.3556257640974221e+00 0 0 0
287 1 1.0527171010279531e+01 -5.6010236453657704e+01 3.1631257672969069e+00 0 0 0
323 1 1.0021937619445906e+00 -5.4005083032374628e+01 1.3556257604242341e+00 0 0 0
325 1 3.5087250444599389e+00 -5.3503793060216246e+01 1.3556257597949672e+00 0 0 0
328 1 2.0047522505680440e+00 -5.2501216397972996e+01 3.1631257547385081e+00 0 0 0
347 1 5.0078147342258406e-01 -5.1498639587327048e+01 1.3556257518126609e+00 0 0 0
306 1 6.0152554990846614e+00 -5.3002505485834199e+01 1.3556257590158423e+00 0 0 0
307 1 7.5192277587511134e+00 -5.4005083035862576e+01 3.1631257606236596e+00 0 0 0
308 1 5.0126970948838769e+00 -5.4506370158609840e+01 3.1631257625569282e+00 0 0 0
309 1 8.5217862465790528e+00 -5.2501216392385231e+01 1.3556257562558949e+00 0 0 0
312 1 7.0178154698691007e+00 -5.1498639590733205e+01 3.1631257509616799e+00 0 0 0
327 1 4.5112838354470597e+00 -5.1999927401065591e+01 3.1631257542811251e+00 0 0 0
289 1 1.1529731092426836e+01 -5.4506370133960914e+01 1.3556257613293983e+00 0 0 0
290 1 1.1028317835225261e+01 -5.1999927386695838e+01 1.3556257529466431e+00 0 0 0
291 1 1.2532289499847936e+01 -5.3002505470686174e+01 3.1631257550284007e+00 0 0 0
292 1 1.0025759041340597e+01 -5.3503793041162048e+01 3.1631257584768320e+00 0 0 0
293 1 1.3033443726624318e+01 -4.8992196150947358e+01 1.3556257387511945e+00 -1 0 0
326 1 3.0073123497798959e+00 -5.0997350186944423e+01 1.3556257479558300e+00 0 0 0
332 1 4.0098758445359524e+00 -4.9493483673859643e+01 3.1631257428621415e+00 0 0 0
348 1 1.5033430071525298e+00 -4.9994773415487700e+01 3.1631257456647006e+00 0 0 0
349 1 2.5059091398740891e+00 -4.8490905804381001e+01 1.3556257388325441e+00 0 0 0
352 1 1.0019444300524023e+00 -4.7488329354828593e+01 3.1631257314259758e+00 0 0 0
310 1 8.0203770026668142e+00 -4.9994773413610474e+01 1.3556257440997730e+00 0 0 0
329 1 5.5138444134160007e+00 -5.0496061468727824e+01 1.3556257477418472e+00 0 0 0
330 1 5.0124431235853217e+00 -4.7989618740343765e+01 1.3556257363317517e+00 0 0 0
331 1 6.5164097215074177e+00 -4.8992196153099371e+01 3.1631257415904415e+00 0 0 0
333 1 7.5189784256655825e+00 -4.7488329357684279e+01 1.3556257319915430e+00 0 0 0
294 1 1.2030878416628530e+01 -5.0496061463341718e+01 3.1631257469830025e+00 0 0 0
311 1 9.5243463465408631e+00 -5.0997350179107606e+01 3.1631257499936871e+00 0 0 0
313 1 1.0526909843895792e+01 -4.9493483669012548e+01 1.3556257416892488e+00 0 0 0
315 1 1.1529477126547885e+01 -4.7989618740497001e+01 3.1631257325918725e+00 0 0 0
316 1 9.0229431374579150e+00 -4.8490905805448534e+01 3.1631257365902035e+00 0 0 0
350 1 2.0045168313635919e+00 -4.5984462071898179e+01 1.3556257219773069e+00 0 0 0
351 1 3.5084784795964459e+00 -4.6987039967809650e+01 3.1631257281677216e+00 0 0 0
356 1 3.0070922445945030e+00 -4.4480595964222573e+01 3.1631257120738461e+00 0 0 0
371 1 5.0055597223024006e-01 -4.4981886281078644e+01 3.1631257155493619e+00 0 0 0
334 1 7.0175899710275829e+00 -4.4981886287493012e+01 1.3556257156969256e+00 0 0 0
335 1 8.5215508310846015e+00 -4.5984462081979494e+01 3.1631257219783389e+00 0 0 0
336 1 6.0150146756916953e+00 -4.6485752568613222e+01 3.1631257254713465e+00 0 0 0
353 1 4.5110535658125333e+00 -4.5483174272249286e+01 1.3556257182613380e+00 0 0 0
355 1 5.5136275654472238e+00 -4.3979308801354769e+01 3.1631257091084839e+00 0 0 0
314 1 1.0025512480534482e+01 -4.6987039972082748e+01 1.3556257298880958e+00 0 0 0
317 1 1.2532048678526566e+01 -4.6485752566740040e+01 1.3556257255922208e+00 0 0 0
318 1 1.2030661568211702e+01 -4.3979308805912090e+01 1.3556257066497404e+00 0 0 0
319 1 1.1028087569456169e+01 -4.5483174280673772e+01 3.1631257199587299e+00 0 0 0
337 1 9.5241262469991614e+00 -4.4480595979906674e+01 1.3556257109063437e+00 0 0 0
320 1 1.3033236211579226e+01 -4.2475443378048169e+01 3.1631256935580185e+00 -1 0 0
354 1 4.0096660994009357e+00 -4.2976729790975632e+01 1.3556256991402866e+00 0 0 0
372 1 1.5031294879801096e+00 -4.3478019608224109e+01 1.3556257049243488e+00 0 0 0
373 1 1.0017445529977302e+00 -4.0971576867472933e+01 1.3556256810107963e+00 0 0 0
374 1 2.5057051308726765e+00 -4.1974153022513342e+01 3.1631256904125582e+00 0 0 0
375 1 3.5082818443051571e+00 -4.0470286361448572e+01 1.3556256778200553e+00 0 0 0
340 1 8.0201634893705158e+00 -4.3478019623668871e+01 3.1631257032817053e+00 0 0 0
357 1 6.5162022107092907e+00 -4.2475443381843142e+01 1.3556256964872875e+00 0 0 0
358 1 6.0148187187225615e+00 -3.9968998583416166e+01 1.3556256738701036e+00 0 0 0
359 1 7.5187785543624956e+00 -4.0971576881655174e+01 3.1631256829388534e+00 0 0 0
360 1 5.0122418526998551e+00 -4.1472864464658748e+01 3.1631256851676759e+00 0 0 0
338 1 9.0227391340801866e+00 -4.1974153043237031e+01 1.3556256917515859e+00 0 0 0
339 1 1.0526700103118451e+01 -4.2976729808626551e+01 3.1631256998066988e+00 0 0 0
341 1 1.1529275855266944e+01 -4.1472864474188967e+01 1.3556256880988617e+00 0 0 0
343 1 1.2531852718680090e+01 -3.9968998580195368e+01 3.1631256734802928e+00 0 0 0