(written by ASE)

144 atoms
1 atom types

0.0      11.020053547426444  xlo xhi
0.0                      30  ylo yhi
0.0      6.9724735581572146  zlo zhi

Atoms # atomic

     1   1       1.643274522080473      18.950083481982091      2.1888027394081808
     2   1      1.0564535203057253      17.188984659987625     0.44568435137529233
     3   1      2.2059658750172204      20.701306647317281     0.44568434827434733
     4   1        8.20473413665888      16.593658552117002      2.1888027421632925
     5   1       10.45809034337476      17.800478389025368      2.1888027405471964
     6   1      9.3688984260583741      20.118534631445513      2.1888027382612609
     7   1  -0.0060718861204021764      19.521456419889159     0.44568434947140295
     8   1      8.7795024622899991       18.37816119749327     0.44568435048449551
     9   1     0.55814741964365711      21.287109664173837      2.1888027373168728
    10   1      10.512461559858485      23.588132578603176      2.1888027360113846
    11   1      1.1248403636460003      23.022567371393869     0.44568434674542157
    12   1      9.9334862401300228      21.860469045888394     0.44568434747855812
    13   1      1.7707537139170177      24.686485301216461      2.1888027357946562
    14   1    0.089580102286764177      25.329495939763525     0.44568434604013257
    15   1      4.9480635698000279      17.800478389023034       2.188802740578077
    16   1      6.5664802938093247      17.188984660166884     0.44568435135167084
    17   1      7.1533012957188165      18.950083481957972      2.1888027393856877
    18   1      6.0681741933481241      21.287109664088057      2.1888027373326366
    19   1      7.7159926487097392      20.701306647205616     0.44568434826979331
    20   1      5.5039548875728874      19.521456419847734     0.44568434940885071
    21   1      8.2833817540984214      22.425356582297756      2.1888027365878604
    22   1      7.2807804875573616      24.686485300968567      2.1888027357816351
    23   1      8.8875583253360997      24.105157597638158     0.44568434640276211
    24   1      6.6348671373838917      23.022567371215068     0.44568434674425172
    25   1       2.694707362848566      16.593658552134574      2.1888027422351493
    26   1      3.2694756884737886      18.378161197542859     0.44568435043159232
    27   1      3.8588716522819086      20.118534631514841      2.1888027383119919
    28   1      2.7733549803641364      22.425356582429572      2.1888027366372396
    29   1      4.4234594663952223       21.86046904592504     0.44568434745740071
    30   1      5.0024347861041472      23.588132578493706      2.1888027360731885
    31   1      5.5996068759447493       25.32949593956608     0.44568434608229873
    32   1      3.3775315516389748      24.105157597662597     0.44568434640543964
    33   1      9.8719671043556048      13.821217312474193     0.44568435777545234
    34   1      10.458093810715106      12.199523977905789      2.1888027483236572
    35   1      9.8719636561502266      16.178785393978686     0.44568435218577879
    36   1      8.8875646755152804       5.894844114075287     0.44568436483074947
    37   1      10.512467822402282      6.4118691816695836      2.1888027542115513
    38   1      9.9334919627069578      8.1395328805164517     0.44568436348851781
    39   1      7.7159978871196637      9.2986955490596142     0.44568436244867404
    40   1      9.3689033379155102      9.8814675495850128      2.1888027511883119
    41   1      8.2833876896240408      7.5746453045438438      2.1888027534453665
    42   1      8.7795064836358421      11.621841417731765     0.44568435974943021
    43   1      6.5664836710368402      12.811016786339849      0.4456843585763709
    44   1      8.2047372929565743      13.406344896967262      2.1888027465225566
    45   1      7.1533056585084838      11.049918900230919      2.1888027497712832
    46   1      7.5991652794280729      15.000001207698526     0.44568435493877856
    47   1      5.8045912697636233      15.000002623863285       2.188802744362317
    48   1      5.5996133530444503      4.6705057329624529     0.44568436529334848
    49   1      7.2807868889865341      5.3135164170204048       2.188802754575387
    50   1      6.6348732770949237      6.9774344481610013     0.44568436440499903
    51   1      4.4234651889971524      8.1395328805155653     0.44568436346939377
    52   1      6.0681797062926028      8.7128923166145462      2.1888027525028688
    53   1      5.0024410486678388      6.4118691817657307      2.1888027542782087
    54   1      5.5039594362341733      10.478545665009987     0.44568436093150737
    55   1      3.2694797099706121       11.62184141790342     0.44568435969349218
    56   1      4.9480670368750763      12.199523977849886      2.1888027483493655
    57   1      3.8588765641848886      9.8814675496029523      2.1888027512368846
    58   1      4.3619403307146456      13.821217312506478     0.44568435764934389
    59   1      2.0891385058470964      15.000001208139524      0.4456843548636909
    60   1      4.3619368826135618      16.178785394008521     0.44568435206518364
    61   1      2.6947105195013372      13.406344897056261      2.1888027465925486
    62   1      3.3775379017396912      5.8948441140864372     0.44568436483678597
    63   1      1.1248465033947141      6.9774344480617199     0.44568436440353221
    64   1      2.7733609158530479      7.5746453044621349      2.1888027534951808
    65   1      1.7707601153675998      5.3135164168390325      2.1888027545878153
    66   1      2.2059711133968714      9.2986955490166778     0.44568436245170995
    67   1  -0.0060673373320197389       10.47854566507233     0.44568436099631309
    68   1      1.6432788847250788       11.04991890034845      2.1888027497932252
    69   1     0.55815293263634602      8.7128923165972001      2.1888027524851879
    70   1      1.0564568970011627      12.811016786433475     0.44568435860270589
    71   1     0.29456449604062446      15.000002623750975      2.1888027444229907
    72   1    0.089586579431836191      4.6705057327831296     0.44568436524418853
    73   1      1.6432745220804736      18.950083481982091      5.6750395184867912
    74   1      1.0564535203057193      17.188984659987618      3.9319211304538997
    75   1      2.2059658750172186      20.701306647317281      3.9319211273529557
    76   1      8.2047341366588782      16.593658552117002       5.675039521241902
    77   1       10.45809034337476      17.800478389025368       5.675039519625793
    78   1      9.3688984260583741      20.118534631445513      5.6750395173398687
    79   1  -0.0060718861204030472      19.521456419889159      3.9319211285500111
    80   1      8.7795024622900062      18.378161197493267      3.9319211295631042
    81   1     0.55814741964365777      21.287109664173837      5.6750395163954801
    82   1      10.512461559858483      23.588132578603179      5.6750395150899928
    83   1      1.1248403636459996      23.022567371393869      3.9319211258240294
    84   1      9.9334862401300228      21.860469045888394      3.9319211265571665
    85   1       1.770753713917018      24.686485301216461      5.6750395148732649
    86   1    0.089580102286763011      25.329495939763529      3.9319211251187407
    87   1      4.9480635698000279      17.800478389023034      5.6750395196566785
    88   1      6.5664802938093203      17.188984660166884      3.9319211304302781
    89   1      7.1533012957188173      18.950083481957972      5.6750395184642972
    90   1      6.0681741933481232      21.287109664088057      5.6750395164112444
    91   1      7.7159926487097383      20.701306647205623      3.9319211273484007
    92   1      5.5039548875728874      19.521456419847734      3.9319211284874584
    93   1      8.2833817540984196      22.425356582297756      5.6750395156664695
    94   1      7.2807804875573625      24.686485300968567      5.6750395148602415
    95   1      8.8875583253360997      24.105157597638158      3.9319211254813697
    96   1      6.6348671373838908      23.022567371215068      3.9319211258228592
    97   1       2.694707362848566      16.593658552134574      5.6750395213137521
    98   1      3.2694756884737921      18.378161197542855      3.9319211295101995
    99   1      3.8588716522819086      20.118534631514841      5.6750395173906005
   100   1       2.773354980364136      22.425356582429572       5.675039515715846
   101   1      4.4234594663952223       21.86046904592504      3.9319211265360088
   102   1       5.002434786104148      23.588132578493706      5.6750395151517967
   103   1      5.5996068759447484       25.32949593956608      3.9319211251609065
   104   1      3.3775315516389752      24.105157597662597      3.9319211254840467
   105   1      9.8719671043556083      13.821217312474156      3.9319211368540601
   106   1      10.458093810715106      12.199523977905789      5.6750395274022498
   107   1      9.8719636561502302      16.178785393978725      3.9319211312643878
   108   1      8.8875646755152786       5.894844114075287      3.9319211439093569
   109   1      10.512467822402282      6.4118691816695845      5.6750395332901595
   110   1       9.933491962706956      8.1395328805164517      3.9319211425671252
   111   1      7.7159978871196619      9.2986955490596124       3.931921141527281
   112   1      9.3689033379155102      9.8814675495850128       5.675039530266921
   113   1      8.2833876896240408      7.5746453045438429      5.6750395325239742
   114   1      8.7795064836358474      11.621841417731773      3.9319211388280384
   115   1      6.5664836710368402      12.811016786339854       3.931921137654979
   116   1      8.2047372929565743      13.406344896967264       5.675039525601159
   117   1      7.1533056585084838      11.049918900230919      5.6750395288498945
   118   1      7.5991652794280693      15.000001207698523      3.9319211340173856
   119   1      5.8045912697636233      15.000002623863287       5.675039523440927
   120   1      5.5996133530444512      4.6705057329624537      3.9319211443719557
   121   1      7.2807868889865341      5.3135164170204057      5.6750395336539938
   122   1      6.6348732770949255      6.9774344481610022      3.9319211434836063
   123   1      4.4234651889971524      8.1395328805155636      3.9319211425480014
   124   1      6.0681797062926028      8.7128923166145444      5.6750395315814766
   125   1      5.0024410486678388      6.4118691817657307      5.6750395333568173
   126   1      5.5039594362341733      10.478545665009989      3.9319211400101151
   127   1      3.2694797099706165      11.621841417903422      3.9319211387720991
   128   1      4.9480670368750763      12.199523977849884      5.6750395274279706
   129   1      3.8588765641848886       9.881467549602954       5.675039530315491
   130   1      4.3619403307146474      13.821217312506466      3.9319211367279521
   131   1      2.0891385058470959      15.000001208139535      3.9319211339422986
   132   1      4.3619368826135627      16.178785394008532      3.9319211311437909
   133   1      2.6947105195013359      13.406344897056261      5.6750395256711634
   134   1      3.3775379017396898      5.8948441140864372      3.9319211439153943
   135   1       1.124846503394715      6.9774344480617199      3.9319211434821399
   136   1      2.7733609158530479      7.5746453044621349      5.6750395325737886
   137   1      1.7707601153675998      5.3135164168390308      5.6750395336664221
   138   1      2.2059711133968714      9.2986955490166761      3.9319211415303181
   139   1  -0.0060673373320200008      10.478545665072332      3.9319211400749206
   140   1      1.6432788847250792       11.04991890034845      5.6750395288718343
   141   1     0.55815293263634602      8.7128923165972001      5.6750395315637965
   142   1      1.0564568970011465      12.811016786433472       3.931921137681313
   143   1     0.29456449604062568      15.000002623750973       5.675039523501602
   144   1    0.089586579431835303      4.6705057327831296      3.9319211443227959
