(written by ASE)

240 atoms
1 atom types

0.0      18.770529098654873  xlo xhi
0.0                      30  ylo yhi
0.0      6.9724735581572146  zlo zhi

Atoms # atomic

     1   1       6.050756934254105      17.228926686762218      1.3073387951234849
     2   1      5.0933737994752599      15.000000000000584      3.0504571846627808
     3   1      6.7739498415646215      18.798735281137255      3.0504571846627906
     4   1      1.6017535081333576      15.000000000001881      1.3073387951234783
     5   1      3.8307079077870747      16.195823154860772      1.3073387951234829
     6   1      2.8296317944766733      18.432051667981693      1.3073387951234861
     7   1      4.4639838926947464      17.803966332252223      3.0504571846627879
     8   1      2.1779120244338488      16.631613774727732      3.0504571846627835
     9   1      5.1224606940856594      19.506312745191401      1.3073387951234869
    10   1      4.1737341188215913      21.858478833911086      1.3073387951234909
    11   1      5.7929936423496766      21.180244808871088      3.0504571846627946
    12   1      3.5087380074431747      20.156829907635583      3.0504571846627924
    13   1      6.4615433107511997      22.849025603834374      1.3073387951234918
    14   1      5.5631960640461164      25.222403782662827      1.3073387951234923
    15   1      4.8732790661661536      23.525639859509752      3.0504571846627964
    16   1      17.095687100100815      16.347973483662329      1.3073387951234801
    17   1      18.588737951268918      14.999999999992081      3.0504571846627795
    18   1      16.122597178444821      15.000000000000618      3.0504571846627804
    19   1     0.58310508199070221      17.281923410972919      1.3073387951234836
    20   1      18.421796657386324      19.734758764622633      1.3073387951234865
    21   1      1.2407911036513573      19.059766676275956      3.0504571846627901
    22   1      17.766920132332078      18.001080274836344      3.0504571846627875
    23   1      1.9002551572363879      20.820690341315238      1.3073387951234903
    24   1     0.96217890765187242      23.176186559987485      1.3073387951234923
    25   1      2.5614222186773139      22.523937224648119      3.0504571846627955
    26   1     0.29498679842405906      21.470393188666737       3.050457184662795
    27   1      3.2781981721600784      24.151984924873542      1.3073387951234923
    28   1      1.6579760334269071      24.883254680150088      3.0504571846627968
    29   1      14.478638348802694      15.000000000002363      1.3073387951234781
    30   1      13.849248442021011      17.803966332254316      1.3073387951234849
    31   1      15.436021483579809      17.228926686765075      3.0504571846627893
    32   1      13.215972457114519      16.195823154863138      3.0504571846627861
    33   1      16.159214390889485      18.798735281141827      1.3073387951234863
    34   1      15.178258191677102      21.180244808872953      1.3073387951234907
    35   1      16.806287649093143      20.453271791306037      3.0504571846627928
    36   1      14.507725243412324      19.506312745193998      3.0504571846627919
    37   1      17.455284618542183       22.13838135975152      1.3073387951234905
    38   1       16.58696556634268      24.466955476079466      1.3073387951234909
    39   1      18.147120152433626      23.780338315854269       3.050457184662795
    40   1      15.846807860078968      22.849025603834875      3.0504571846627964
    41   1      9.2034734019414852       14.99999999994299      1.3073387951234774
    42   1      10.987018057460793      15.000000000008992       3.050457184662783
    43   1       11.56317657376225      16.631613774732532      1.3073387951234807
    44   1       10.62605565297854      19.059766676279938      1.3073387951234867
    45   1       12.21489634380448      18.432051667985085      3.0504571846627897
    46   1      9.9683696313221102      17.281923410982294      3.0504571846627857
    47   1      12.894002556770499      20.156829907637864      1.3073387951234894
    48   1      11.946686768004518      22.523937224649703      1.3073387951234916
    49   1      13.558998668148893      21.858478833912756      3.0504571846627959
    50   1      11.285519706563377      20.820690341317377      3.0504571846627928
    51   1      14.258543615493766      23.525639859510843      1.3073387951234909
    52   1      14.948460613374426      25.222403782663218      3.0504571846627968
    53   1      12.663462721487608      24.151984924874935      3.0504571846627972
    54   1      6.7373326291173834      14.999999999998634      1.3073387951234778
    55   1      7.7104225507858173      16.347973483652641      3.0504571846627822
    56   1      8.3816555830055339      18.001080274835765      1.3073387951234818
    57   1      7.4210230997650841      20.453271791305159      1.3073387951234903
    58   1      9.0365321080581538      19.734758764625205      3.0504571846627888
    59   1      9.6802513477507279      21.470393188668528      1.3073387951234907
    60   1      8.7618556031055945      23.780338315855442      1.3073387951234925
    61   1      10.347443456978844      23.176186559988906      3.0504571846627977
    62   1      8.0700200692140509      22.138381359752081      3.0504571846627955
    63   1      11.043240582754155      24.883254680151232      1.3073387951234938
    64   1      7.2017010170144102      24.466955476079729      3.0504571846627959
    65   1      17.766920132328398      11.998919725164177       3.050457184662775
    66   1      18.421796657382686       10.26524123537809      1.3073387951234681
    67   1      17.095687100094498      13.652026516335468       1.307338795123475
    68   1      18.147120152431302      6.2196616841453158      3.0504571846627679
    69   1      15.846807860076618      7.1509743961652106      3.0504571846627671
    70   1      17.455284618539423      7.8616186402484027      1.3073387951234643
    71   1      16.586965566340442      5.5330445239202053      1.3073387951234625
    72   1      16.806287649089803      9.5467282086943541      3.0504571846627706
    73   1      14.507725243408336      10.493687254808048      3.0504571846627724
    74   1      16.159214390885381       11.20126471885831      1.3073387951234705
    75   1      15.178258191674061      8.8197551911278804      1.3073387951234656
    76   1      15.436021483576178      12.771073313236665      3.0504571846627742
    77   1       13.21597245711199      13.804176845142978      3.0504571846627764
    78   1      13.849248442017741      12.196033667748891      1.3073387951234701
    79   1      14.948460613372095      4.7775962173367548      3.0504571846627648
    80   1      12.663462721485669      5.8480150751262432      3.0504571846627679
    81   1      14.258543615491686      6.4743601404896527      1.3073387951234627
    82   1      13.558998668146357      8.1415211660888609      3.0504571846627675
    83   1      11.285519706560784      9.1793096586863054      3.0504571846627684
    84   1      12.894002556766651      9.8431700923657761      1.3073387951234661
    85   1      11.946686768002568       7.476062775352311      1.3073387951234636
    86   1      12.214896343798671       11.56794833202248      3.0504571846627737
    87   1      9.9683696313097965      12.718076589040514      3.0504571846627755
    88   1      11.563176573756467       13.36838622527908      1.3073387951234741
    89   1      10.626055652974715      10.940233323728785      1.3073387951234692
    90   1       11.04324058275235      5.1167453198501018      1.3073387951234618
    91   1      10.347443456977452      6.8238134400131285      3.0504571846627675
    92   1      8.0700200692126849      7.8616186402489516      3.0504571846627675
    93   1      9.6802513477491416        8.52960681133478      1.3073387951234636
    94   1      8.7618556031044612      6.2196616841464829      1.3073387951234641
    95   1      9.0365321080559813      10.265241235380659      3.0504571846627719
    96   1      6.7739498415553756      11.201264718853739      3.0504571846627737
    97   1      8.3816555830000716      11.998919725163599      1.3073387951234716
    98   1      7.4210230997629871      9.5467282086934784      1.3073387951234661
    99   1      7.7104225507546209      13.652026516325778      3.0504571846627795
   100   1      6.0507569342470138      12.771073313233808      1.3073387951234703
   101   1      7.2017010170138391      5.5330445239204584      3.0504571846627671
   102   1       4.873279066164427      6.4743601404885611      3.0504571846627657
   103   1      6.4615433107495095      7.1509743961647034      1.3073387951234625
   104   1      5.5631960640455276      4.7775962173363649      1.3073387951234618
   105   1      5.7929936423466151      8.8197551911260152      3.0504571846627688
   106   1      3.5087380074391032      9.8431700923634935      3.0504571846627706
   107   1      5.1224606940801278      10.493687254805451      1.3073387951234678
   108   1      4.1737341188187935      8.1415211660871929      1.3073387951234643
   109   1      4.4639838926891349      12.196033667746798      3.0504571846627746
   110   1      2.1779120244300025      13.368386225274271      3.0504571846627782
   111   1       3.830707907784566      13.804176845140612      1.3073387951234738
   112   1      2.8296317944716103      11.567948332019085       1.307338795123469
   113   1      1.6579760334247247      5.1167453198489694      3.0504571846627657
   114   1      3.2781981721583247      5.8480150751248496      1.3073387951234636
   115   1      2.5614222186749012      7.4760627753507283      3.0504571846627679
   116   1     0.29498679842093906      8.5296068113329948      3.0504571846627675
   117   1      1.9002551572329045      9.1793096586841703      1.3073387951234645
   118   1     0.96217890764955061      6.8238134400117039      1.3073387951234632
   119   1      1.2407911036470327      10.940233323724804      3.0504571846627724
   120   1      0.5831050819863316      12.718076589031142      1.3073387951234725
   121   1      6.0507569342541032      17.228926686762218      4.7935755742020918
   122   1      5.0933737994752608      15.000000000000586      6.5366939637413868
   123   1      6.7739498415646198      18.798735281137255      6.5366939637413983
   124   1       1.601753508133358      15.000000000001881      4.7935755742020874
   125   1      3.8307079077870756      16.195823154860772        4.79357557420209
   126   1       2.829631794476672      18.432051667981693      4.7935755742020936
   127   1      4.4639838926947473      17.803966332252219      6.5366939637413957
   128   1      2.1779120244338488      16.631613774727732      6.5366939637413939
   129   1      5.1224606940856612      19.506312745191401      4.7935755742020971
   130   1      4.1737341188215895      21.858478833911082      4.7935755742020971
   131   1      5.7929936423496757      21.180244808871084      6.5366939637414001
   132   1      3.5087380074431747      20.156829907635586       6.536693963741401
   133   1      6.4615433107512015      22.849025603834377      4.7935755742021016
   134   1      5.5631960640461191      25.222403782662827      4.7935755742021016
   135   1      4.8732790661661545      23.525639859509752      6.5366939637414054
   136   1      17.095687100100815      16.347973483662329      4.7935755742020874
   137   1      18.588737951268921      14.999999999992081      6.5366939637413912
   138   1      16.122597178444817      15.000000000000618      6.5366939637413903
   139   1     0.58310508199070199      17.281923410972919      4.7935755742020909
   140   1      18.421796657386324      19.734758764622633      4.7935755742020971
   141   1      1.2407911036513568      19.059766676275956      6.5366939637413966
   142   1      17.766920132332075      18.001080274836344      6.5366939637413939
   143   1      1.9002551572363866      20.820690341315238      4.7935755742020962
   144   1      0.9621789076518722      23.176186559987485      4.7935755742020998
   145   1      2.5614222186773135      22.523937224648122      6.5366939637414045
   146   1     0.29498679842405895      21.470393188666737      6.5366939637414019
   147   1      3.2781981721600784      24.151984924873542      4.7935755742021007
   148   1      1.6579760334269085      24.883254680150088      6.5366939637414054
   149   1      14.478638348802697      15.000000000002357      4.7935755742020847
   150   1      13.849248442021015      17.803966332254316      4.7935755742020953
   151   1      15.436021483579809      17.228926686765078      6.5366939637413966
   152   1      13.215972457114519      16.195823154863138       6.536693963741393
   153   1      16.159214390889488      18.798735281141827      4.7935755742020927
   154   1        15.1782581916771      21.180244808872953      4.7935755742020953
   155   1      16.806287649093143      20.453271791306033      6.5366939637414001
   156   1      14.507725243412324      19.506312745194002      6.5366939637413992
   157   1      17.455284618542187      22.138381359751524      4.7935755742020962
   158   1      16.586965566342684      24.466955476079473      4.7935755742021025
   159   1      18.147120152433626      23.780338315854269      6.5366939637414037
   160   1      15.846807860078963      22.849025603834878      6.5366939637414054
   161   1      9.2034734019414852      14.999999999942988      4.7935755742020847
   162   1      10.987018057460796       15.00000000000899      6.5366939637413886
   163   1       11.56317657376225      16.631613774732536      4.7935755742020891
   164   1      10.626055652978545      19.059766676279938      4.7935755742020953
   165   1      12.214896343804476      18.432051667985085      6.5366939637413974
   166   1      9.9683696313221049      17.281923410982294      6.5366939637413974
   167   1      12.894002556770499      20.156829907637867      4.7935755742020962
   168   1      11.946686768004517      22.523937224649703      4.7935755742020989
   169   1      13.558998668148895      21.858478833912752      6.5366939637414045
   170   1      11.285519706563379      20.820690341317381      6.5366939637414001
   171   1      14.258543615493766      23.525639859510839      4.7935755742021025
   172   1      14.948460613374426      25.222403782663214      6.5366939637414045
   173   1      12.663462721487607      24.151984924874938      6.5366939637414037
   174   1      6.7373326291173816      14.999999999998632      4.7935755742020856
   175   1      7.7104225507858155      16.347973483652638       6.536693963741393
   176   1      8.3816555830055339      18.001080274835765      4.7935755742020909
   177   1      7.4210230997650841      20.453271791305159      4.7935755742020971
   178   1      9.0365321080581538      19.734758764625205       6.536693963741401
   179   1      9.6802513477507279      21.470393188668528      4.7935755742020971
   180   1      8.7618556031055927      23.780338315855438      4.7935755742020998
   181   1      10.347443456978844       23.17618655998891      6.5366939637414019
   182   1      8.0700200692140491      22.138381359752081      6.5366939637414028
   183   1      11.043240582754157      24.883254680151232      4.7935755742021016
   184   1      7.2017010170144111      24.466955476079729      6.5366939637414054
   185   1      17.766920132328398      11.998919725164178      6.5366939637413832
   186   1      18.421796657382689      10.265241235378088      4.7935755742020758
   187   1      17.095687100094498      13.652026516335468       4.793575574202082
   188   1      18.147120152431302       6.219661684145315      6.5366939637413752
   189   1      15.846807860076614      7.1509743961652097      6.5366939637413752
   190   1      17.455284618539419       7.861618640248401      4.7935755742020723
   191   1      16.586965566340439      5.5330445239202053      4.7935755742020696
   192   1      16.806287649089803      9.5467282086943541      6.5366939637413779
   193   1      14.507725243408334      10.493687254808048      6.5366939637413788
   194   1      16.159214390885381      11.201264718858312      4.7935755742020758
   195   1      15.178258191674061      8.8197551911278822      4.7935755742020723
   196   1      15.436021483576178      12.771073313236665      6.5366939637413815
   197   1      13.215972457111993      13.804176845142976      6.5366939637413868
   198   1      13.849248442017739      12.196033667748893      4.7935755742020785
   199   1      14.948460613372095      4.7775962173367557      6.5366939637413752
   200   1      12.663462721485669      5.8480150751262459      6.5366939637413752
   201   1      14.258543615491686      6.4743601404896545      4.7935755742020705
   202   1      13.558998668146355      8.1415211660888627      6.5366939637413761
   203   1      11.285519706560784      9.1793096586863054      6.5366939637413761
   204   1      12.894002556766651      9.8431700923657779       4.793575574202074
   205   1      11.946686768002566       7.476062775352311      4.7935755742020696
   206   1      12.214896343798671       11.56794833202248      6.5366939637413815
   207   1      9.9683696313097965      12.718076589040514      6.5366939637413823
   208   1      11.563176573756468      13.368386225279076       4.793575574202082
   209   1      10.626055652974715      10.940233323728787      4.7935755742020776
   210   1       11.04324058275235      5.1167453198501018      4.7935755742020696
   211   1       10.34744345697745      6.8238134400131285      6.5366939637413761
   212   1      8.0700200692126813      7.8616186402489516      6.5366939637413761
   213   1      9.6802513477491452      8.5296068113347783      4.7935755742020723
   214   1      8.7618556031044594       6.219661684146482      4.7935755742020696
   215   1      9.0365321080559813      10.265241235380659      6.5366939637413806
   216   1      6.7739498415553765      11.201264718853738      6.5366939637413823
   217   1      8.3816555830000699      11.998919725163599      4.7935755742020802
   218   1      7.4210230997629889      9.5467282086934784      4.7935755742020731
   219   1      7.7104225507546209      13.652026516325776      6.5366939637413868
   220   1      6.0507569342470138      12.771073313233808      4.7935755742020776
   221   1        7.20170101701384      5.5330445239204593      6.5366939637413752
   222   1       4.873279066164427      6.4743601404885629      6.5366939637413761
   223   1      6.4615433107495104      7.1509743961647025      4.7935755742020723
   224   1      5.5631960640455267      4.7775962173363657      4.7935755742020687
   225   1       5.792993642346616       8.819755191126017       6.536693963741377
   226   1      3.5087380074391024      9.8431700923634935       6.536693963741377
   227   1      5.1224606940801278      10.493687254805449      4.7935755742020731
   228   1      4.1737341188187909      8.1415211660871929      4.7935755742020731
   229   1       4.463983892689134      12.196033667746798      6.5366939637413815
   230   1      2.1779120244300012      13.368386225274271      6.5366939637413859
   231   1      3.8307079077845647      13.804176845140612      4.7935755742020811
   232   1      2.8296317944716107      11.567948332019087      4.7935755742020785
   233   1      1.6579760334247255      5.1167453198489685      6.5366939637413735
   234   1      3.2781981721583255      5.8480150751248496      4.7935755742020687
   235   1      2.5614222186749012      7.4760627753507283      6.5366939637413761
   236   1     0.29498679842094067      8.5296068113329948      6.5366939637413761
   237   1      1.9002551572329047      9.1793096586841703      4.7935755742020749
   238   1     0.96217890764954961      6.8238134400117048      4.7935755742020705
   239   1      1.2407911036470323      10.940233323724804      6.5366939637413797
   240   1     0.58310508198633093      12.718076589031142      4.7935755742020785
