(written by ASE)

224 atoms
1 atom types

0.0      17.775868322703069  xlo xhi
0.0                      30  ylo yhi
0.0      6.9724735581572146  zlo zhi

Atoms # atomic

     1   1       14.24877956572395      16.599152879153419  8.3441732332704054e-08
     2   1      14.924243224446922      20.072574567152383  8.3467417909781975e-08
     3   1      14.560514755127008      18.324560751726914      1.7431184730069684
     4   1      15.276515327842146      21.840590444251035      1.7431184730068023
     5   1      12.211807598453248      14.979734389656878  8.3470620397668553e-08
     6   1      10.718660166019564      16.935333580999977  8.3495347427918592e-08
     7   1      12.436290237294875      16.843164336930144      1.7431184730099671
     8   1      10.372203026993235      14.962456161105534      1.7431184730288076
     9   1      12.812896273963529       18.61247159982209  8.3466951602039477e-08
    10   1      11.491859050984532       20.77387832252866  8.3466764611354453e-08
    11   1      13.193576805379816      20.418931711656526      1.7431184730068505
    12   1      11.117705149207504      18.925681353329452      1.7431184730061111
    13   1      13.563752356923604      22.189666601387827  8.3467494449714495e-08
    14   1      12.276257129025753      24.293241695561711  8.3467430548694166e-08
    15   1       13.94676195554875      23.931097700419588      1.7431184730071552
    16   1      11.857099132750754      22.557718776116342      1.7431184730070766
    17   1      8.5402050809240109      15.241365803076452   8.346149162337762e-08
    18   1      7.4393322862286801      17.919476713102934  8.3423352606947757e-08
    19   1      9.1291047294731609      17.380207046051495      1.7431184729946101
    20   1      7.0567658614105477      16.254556506738552      1.7431184729424265
    21   1      9.4648593297803973      19.280703434131187   8.347258313825979e-08
    22   1      8.0949622890610939      21.491596729610418  8.3467509902745741e-08
    23   1      9.7944564838477088      21.139220901324638       1.743118473007881
    24   1      7.7665297968951679      19.675449441643572      1.7431184730155964
    25   1      10.146741193540283      22.938114214109714  8.3467397552552917e-08
    26   1       8.829256235122612      25.085381707764025  8.3467443485739204e-08
    27   1      10.592240650456608       24.66858175484689      1.7431184730057516
    28   1      8.4412620838328305      23.290736707345967      1.7431184730069966
    29   1      3.3238695266229894      14.979733155081712  8.3442332229137725e-08
    30   1      5.3608444017587464      16.599146709194251   8.364293239355682e-08
    31   1      3.9249659742441221      18.612471247319579   8.346011536314702e-08
    32   1      5.6725819761361409      18.324554754984113      1.7431184730154072
    33   1      3.5483566823165238      16.843164071296346      1.7431184730132867
    34   1      6.0363105723751262      20.072573118115159  8.3468899224137513e-08
    35   1      4.6758217415613821      22.189672431866278  8.3467396181896576e-08
    36   1      6.3885824742402288      21.840595601116313      1.7431184730082159
    37   1      4.3056474985805444      20.418933464142842      1.7431184730100797
    38   1      6.7406754683578498      23.591761980160694  8.3467402470934216e-08
    39   1      5.0588292213268726      23.931105812207022      1.7431184730056877
    40   1      5.0442919068697831      14.989483336883708       1.743118472986996
    41   1      17.428140133994429      15.241384233550306  8.3468614633492296e-08
    42   1      1.4842661711126071      14.962457176216063      1.7431184730085574
    43   1      1.8307280940694111      16.935337619639164  8.3450521326222134e-08
    44   1     0.57692985180068213      19.280707882838495  8.3469141683556382e-08
    45   1      2.2297760504068029       18.92568529019664      1.7431184730092677
    46   1     0.24117341203451079      17.380213849440278      1.7431184730038547
    47   1      2.6039303753487602      20.773881522690193  8.3468180117406887e-08
    48   1      1.2588086457555487      22.938113311606173  8.3467369915259245e-08
    49   1      2.9691686012628891      22.557722206148132       1.743118473007959
    50   1     0.90652666389175107       21.13922254041772      1.7431184730075093
    51   1       3.388322513152457      24.293246390944219  8.3467449633684264e-08
    52   1      1.7043031518047009      24.668580508198065      1.7431184730078619
    53   1        15.9447004862614      16.254567616021788      1.7431184730045488
    54   1       16.32726797489299      17.919485719230607  8.3473294989526829e-08
    55   1      16.654466617976304      19.675453671045798       1.743118473007073
    56   1      16.982898326290488      21.491594949980271  8.3467256848382725e-08
    57   1       15.62860719728469      23.591753365924781  8.3467441177541918e-08
    58   1      17.329195031057559      23.290731003872562      1.7431184730068154
    59   1      17.717184905894666      25.085374319655571  8.3467441365586607e-08
    60   1      13.932231122157386      14.989488234799159      1.7431184730056006
    61   1      17.054113855826174      8.4954652034166287  8.3467728080979284e-08
    62   1      17.403470495370122      6.6969586871447282      1.7431184730067992
    63   1      16.401659211752627      12.102098995706511  8.3467520603307656e-08
    64   1      16.720525719131949      10.312678595726622      1.7431184730067897
    65   1      16.092151893851987      13.860124664157738      1.7431184730083442
    66   1      15.703664239977611      6.3973391108251541  8.3467384774859697e-08
    67   1      13.642979369345355       7.809488281964498  8.3467428557906741e-08
    68   1      15.351577919993664      8.1550846031476603      1.7431184730066942
    69   1      14.022269147085199      6.0649942547454865      1.7431184730067295
    70   1      15.000779824394961      9.9407148146662117  8.3467267765357641e-08
    71   1      12.894133734732904      11.384830665420996  8.3465161860638694e-08
    72   1      14.659107287757866      11.717714091714404      1.7431184730061611
    73   1      13.278622155132293      9.5855150631028785        1.74311847300613
    74   1      14.332586249004942      13.420043323253607  8.3488161372316073e-08
    75   1      12.478758345309661      13.121841265123582      1.7431184730011422
    76   1      12.353361238038678      5.7049034364185074  8.3467403227546463e-08
    77   1      10.222357260133178      7.0513943849514051  8.3467394352291355e-08
    78   1      11.935434312811189      7.4384829444107119       1.743118473006722
    79   1      10.670744100598455      5.3253808225798442      1.7431184730068081
    80   1      11.572255053231451      9.2131342119204191  8.3467725613112065e-08
    81   1      9.5303754920678951      10.683868217973856  8.3468383015332715e-08
    82   1      11.192185598358227      11.032538971674354       1.743118473005999
    83   1      9.8674825622640299      8.8422468633652453      1.7431184730064122
    84   1      10.772846024141892      12.992830238146475  8.3463554260135394e-08
    85   1      9.1885205349682977      12.539770541010151      1.7431184730144373
    86   1      8.9078260469214303      4.9036364198451752  8.3467420137219804e-08
    87   1      6.8157306547953187      6.3973407048775668   8.346744861417954e-08
    88   1      8.5155381472275824      6.6969555756134165      1.7431184730066136
    89   1      8.1661837396615216      8.4954641936490614  8.3467435993064821e-08
    90   1      6.1128483502511557      9.9407133665913321  8.3466805743535986e-08
    91   1      7.8325952927580609      10.312678492849363      1.7431184730066829
    92   1      6.4636472332950357      8.1550861348338088      1.7431184730063198
    93   1      7.5137252141370627      12.102095842812968  8.3466883314879973e-08
    94   1      5.4446472999438118      13.420037207959391  8.3332551511539735e-08
    95   1      7.2042089377352445      13.860114132311079      1.7431184730009639
    96   1      5.7711712681753475      11.717707988362708      1.7431184730120179
    97   1      3.4654257305172829      5.7049124465484962  8.3467443163007568e-08
    98   1      5.1343340518353306      6.0650008354889673      1.7431184730066136
    99   1      4.7550468372664598      7.8094929948593572  8.3467403527661922e-08
   100   1        2.68431935657431      9.2131351781186464  8.3465393482077721e-08
   101   1      4.3906885340919137      9.5855145461570803      1.7431184730072522
   102   1      3.0474996176465239      7.4384895626935226      1.7431184730069207
   103   1      4.0061973412970397      11.384826296288976  8.3482090565477556e-08
   104   1      1.8849092824630762      12.992828543535962  8.3495648818627686e-08
   105   1       3.590820666055774      13.121836365142522      1.7431184730071769
   106   1      2.3042491927061137      11.032535311503175      1.7431184730076028
   107   1      17.795762070722965      4.9036414603764618  8.3467400072418376e-08
   108   1      1.7828095171567877      5.3253892450747928      1.7431184730066576
   109   1      1.3344212091225449      7.0514003565518841  8.3467583154475714e-08
   110   1     0.97954503138888227      8.8422487562816787       1.743118473007079
   111   1        0.64243823045629      10.683866948950515  8.3462046561146362e-08
   112   1     0.30058564934037996      12.539765870573961      1.7431184730072633
   113   1      14.248779565726887      16.599152879151308      3.4862368625717344
   114   1      14.924243224447535      20.072574567152248      3.4862368625460562
   115   1      14.560514755126816       18.32456075172222      5.2293552520851101
   116   1      15.276515327842333      21.840590444251202      5.2293552520852824
   117   1      12.211807598459107      14.979734389654634      3.4862368625428428
   118   1      10.718660166009856      16.935333581011214      3.4862368625181221
   119   1      12.436290237319003      16.843164336911727      5.2293552520821089
   120   1       10.37220302699531      14.962456161101521      5.2293552520632627
   121   1      12.812896273965425      18.612471599823806      3.4862368625465208
   122   1      11.491859050981606      20.773878322524375      3.4862368625467108
   123   1      13.193576805378008      20.418931711655055      5.2293552520852336
   124   1      11.117705149221271      18.925681353341158       5.229355252085969
   125   1      13.563752356922253      22.189666601386936      3.4862368625459839
   126   1      12.276257129025257      24.293241695563285      3.4862368625460491
   127   1      13.946761955548762       23.93109770041956      5.2293552520849325
   128   1      11.857099132750657      22.557718776116321      5.2293552520850097
   129   1      8.5402050808424299      15.241365803166453       3.486236862551972
   130   1      7.4393322862516333      17.919476713017801       3.486236862590117
   131   1       9.129104729266917      17.380207045980736      5.2293552520974664
   132   1      7.0567658618240481      16.254556507009706      5.2293552521496505
   133   1      9.4648593297754111      19.280703434113644       3.486236862540891
   134   1      8.0949622890630604      21.491596729615505       3.486236862545967
   135   1       9.794456483848089      21.139220901325167      5.2293552520842033
   136   1      7.7665297968953002      19.675449441641934       5.229355252076485
   137   1       10.14674119354183      22.938114214111604      3.4862368625460824
   138   1      8.8292562351254009      25.085381707765805      3.4862368625460363
   139   1      10.592240650456629      24.668581754846876      5.2293552520863358
   140   1      8.4412620838327381      23.290736707345971      5.2293552520850906
   141   1      3.3238695266430942      14.979733155081551        3.48623686257113
   142   1      5.3608444018182446      16.599146709136093       3.486236862370534
   143   1       3.924965974251629      18.612471247292294      3.4862368625533562
   144   1      5.6725819761490479      18.324554755016713      5.2293552520766697
   145   1      3.5483566821764914      16.843164071415256      5.2293552520787898
   146   1       6.036310572380498      20.072573118107318      3.4862368625445748
   147   1      4.6758217415624239      22.189672431866676      3.4862368625460811
   148   1       6.388582474240236      21.840595601117123      5.2293552520838702
   149   1      4.3056474985801518      20.418933464145724      5.2293552520820041
   150   1      6.7406754683572156      23.591761980166194      3.4862368625460767
   151   1      5.0588292213269836      23.931105812206983      5.2293552520863997
   152   1      5.0442919065992786      14.989483336106442      5.2293552521050763
   153   1      17.428140133990109      15.241384233550837      3.4862368625448492
   154   1      1.4842661711126985      14.962457176216722       5.229355252083514
   155   1      1.8307280940579091      16.935337619625059      3.4862368625629481
   156   1     0.57692985179941647      19.280707882833745      3.4862368625443314
   157   1      2.2297760504212456       18.92568529017597      5.2293552520828142
   158   1     0.24117341206530529      17.380213849448982      5.2293552520882223
   159   1         2.6039303753495      20.773881522682476       3.486236862545296
   160   1      1.2588086457559577      22.938113311604877        3.48623686254611
   161   1      2.9691686012628735      22.557722206148284       5.229355252084126
   162   1     0.90652666389023606      21.139222540419524      5.2293552520845745
   163   1      3.3883225131550883      24.293246390945544        3.48623686254603
   164   1      1.7043031518047091      24.668580508198044      5.2293552520842255
   165   1      15.944700486201736      16.254567615983056      5.2293552520875268
   166   1      16.327267974894351      17.919485719226618      3.4862368625401738
   167   1      16.654466617977359      19.675453671045126      5.2293552520850088
   168   1      16.982898326290726      21.491594949979039      3.4862368625462201
   169   1        15.6286071972845      23.591753365922749      3.4862368625460376
   170   1      17.329195031057719      23.290731003872288      5.2293552520852726
   171   1      17.717184905892832      25.085374319654655      3.4862368625460385
   172   1      13.932231122196182      14.989488234916463      5.2293552520864699
   173   1      17.054113855826092      8.4954652034169413      3.4862368625457201
   174   1      17.403470495369788      6.6969586871442432      5.2293552520852549
   175   1      16.401659211750591      12.102098995706822      3.4862368625459355
   176   1      16.720525719129533      10.312678595725307      5.2293552520852682
   177   1      16.092151893858578      13.860124664165165      5.2293552520837228
   178   1      15.703664239977549      6.3973391108253441       3.486236862546062
   179   1      13.642979369345278      7.8094882819648435      3.4862368625460189
   180   1      15.351577919993963      8.1550846031477686      5.2293552520853614
   181   1      14.022269147085193      6.0649942547454776      5.2293552520853241
   182   1      15.000779824394614      9.9407148146662614       3.486236862546185
   183   1      12.894133734735343      11.384830665418683      3.4862368625482909
   184   1      14.659107287758218      11.717714091708947      5.2293552520859024
   185   1      13.278622155132274      9.5855150631026245      5.2293552520859281
   186   1      14.332586248999688      13.420043323252502      3.4862368625252982
   187   1      12.478758345274599      13.121841265084575      5.2293552520909241
   188   1      12.353361238038749      5.7049034364187268       3.486236862546042
   189   1      10.222357260133247      7.0513943849515854      3.4862368625460527
   190   1      11.935434312811159      7.4384829444106373      5.2293552520853321
   191   1      10.670744100598487      5.3253808225798496       5.229355252085246
   192   1      11.572255053231574      9.2131342119206519      3.4862368625457236
   193   1      9.5303754920661774      10.683868217970558      3.4862368625450677
   194   1      11.192185598364036      11.032538971681037      5.2293552520860604
   195   1      9.8674825622635147      8.8422468633645366      5.2293552520856439
   196   1      10.772846024169967      12.992830238116682      3.4862368625499021
   197   1      9.1885205349658197      12.539770541011581      5.2293552520776254
   198   1      8.9078260469211763       4.903636419845542      3.4862368625460243
   199   1      6.8157306547951624      6.3973407048779141      3.4862368625459972
   200   1      8.5155381472276392      6.6969555756134884      5.2293552520854405
   201   1      8.1661837396617294      8.4954641936480826      3.4862368625460132
   202   1      6.1128483502515181      9.9407133665866088      3.4862368625466456
   203   1      7.8325952927581861      10.312678492850821      5.2293552520853783
   204   1      6.4636472332949095      8.1550861348343613      5.2293552520857354
   205   1      7.5137252141279101      12.102095842811758      3.4862368625465732
   206   1      5.4446472999478548      13.420037207989635      3.4862368626809079
   207   1      7.2042089377086844      13.860114132249231      5.2293552520911017
   208   1      5.7711712681719973      11.717707988396384      5.2293552520800466
   209   1      3.4654257305173832        5.70491244654733      3.4862368625460016
   210   1       5.134334051835328      6.0650008354889948      5.2293552520854405
   211   1      4.7550468372662706      7.8094929948581742      3.4862368625460438
   212   1      2.6843193565745755      9.2131351781199289       3.486236862548056
   213   1      4.3906885340920967      9.5855145461591178      5.2293552520848046
   214   1      3.0474996176466722      7.4384895626938494      5.2293552520851341
   215   1      4.0061973412985807       11.38482629629458      3.4862368625313622
   216   1      1.8849092824618467      12.992828543544801      3.4862368625178073
   217   1      3.5908206662902429      13.121836365400068      5.2293552520848898
   218   1       2.304249192669519      11.032535311457377      5.2293552520844573
   219   1      17.795762070723001      4.9036414603764271      3.4862368625460447
   220   1      1.7828095171567138       5.325389245074736       5.229355252085397
   221   1      1.3344212091227425      7.0514003565518149      3.4862368625458631
   222   1     0.97954503139226123      8.8422487562863363       5.229355252084976
   223   1     0.64243823045560366      10.683866948952529      3.4862368625514062
   224   1     0.30058564933141435      12.539765870571514      5.2293552520848001
