(written by ASE)

228 atoms
1 atom types

0.0      17.431183895393037  xlo xhi
0.0                      30  ylo yhi
0.0      6.9724735581572146  zlo zhi

Atoms # atomic

     1   1      1.5953922845287618      16.162171107590765      1.7431267066328566
     2   1     0.14991914733642092      13.121925121967623  8.3891312388918942e-06
     3   1       14.07491474466398      15.000000089955734      1.7431267409339029
     4   1      15.221850211792573      13.651858754006421  8.3660168549490288e-06
     5   1      12.758732165456365      13.716298809336363  8.3708231456819716e-06
     6   1      16.692997137290572      14.999999979043659      1.7431267409276805
     7   1      16.239664902732436      17.931618394607916      1.7431267003461524
     8   1     0.14991870786393435      16.878074903760545  8.3136895215375077e-06
     9   1      15.221849835002494      16.348141340789343   8.336771433797509e-06
    10   1      1.2285227246680723       18.53469761581783      1.7431266781970614
    11   1     0.90130791102870511      21.036665879380827      1.7431266564334622
    12   1      17.270992740487955      19.495397117401577  8.2853493829375586e-06
    13   1      8.8655110950866174      13.121925121978581      1.7431267786633731
    14   1      11.572573848466227      15.000000053555539      1.7431267409357365
    15   1      11.366201724160682      17.493463781532753         1.7431266938495
    16   1      12.758731778843035      16.283701392997475  8.3319535870712045e-06
    17   1      10.310984232285694      16.162171107535919  8.3170819395693029e-06
    18   1      13.826469604060811      17.643317252915203      1.7431267084769213
    19   1      13.477680524700846      20.259433057712087      1.7431266725807497
    20   1      14.865765600631379      19.080020073325795  8.3012590830876801e-06
    21   1       12.42459173115089      18.856858739684061  8.2938544607418906e-06
    22   1       15.90544488834726      20.590650622511617      1.7431266694963823
    23   1      15.566129551213169      23.129722929184716      1.7431266490635227
    24   1      16.946805848257689      22.090213877802629  8.2631578577401787e-06
    25   1      14.513411779452566      21.702736261263372  8.2698850245957065e-06
    26   1     0.58277997864247788      23.524523430238553      1.7431266445979248
    27   1      1.6497268866909649      24.964732194876053  8.2509931108117372e-06
    28   1       16.61340996983883      24.578054435029614   8.254124886958833e-06
    29   1      4.0431402177403077      13.716298809362861      1.7431267603902836
    30   1      6.5062582640832316      13.651858754020045      1.7431267555899088
    31   1      6.5062578873145238      16.348141340798591      1.7431267263411896
    32   1      7.9774051895953972      14.999999979042565  8.3514115177869795e-06
    33   1      5.3593227969638271      15.000000089963963  8.3514310040222977e-06
    34   1      8.8655106555092242      16.878074903755419      1.7431267032241771
    35   1      8.5554007928129661      19.495397117361236       1.743126674902562
    36   1      9.9441146723679257      18.534697615831462  8.2886659032552487e-06
    37   1      7.5240729550611585      17.931618394582959  8.3108154353124606e-06
    38   1      11.014644676688393      19.973724254993595      1.7431266644218775
    39   1      10.674430627771555      22.488750872145605      1.7431266473759983
    40   1      12.068402622067826      21.402318134071624  8.2655931052972865e-06
    41   1      9.6168998587344028      21.036665879340845  8.2669127599160795e-06
    42   1      13.119057589207907      22.806507416939755       1.743126648832992
    43   1      12.869997027075168      25.340462626851043      1.7431266414244024
    44   1      14.197066349110017      24.166255688357221  8.2560711260231775e-06
    45   1      11.754568172371537      23.888945942810832  8.2537146258125073e-06
    46   1      2.8569819007634982      15.000000053538665  8.3514189826016702e-06
    47   1      4.0431398311577933      16.283701393023684      1.7431267215188151
    48   1       3.708999783444054      18.856858739700314      1.7431266834012251
    49   1      5.1108776563439529      17.643317252919399   8.318961593588827e-06
    50   1      2.6506097764408523      17.493463781564667   8.304319538706781e-06
    51   1      6.1501736529238711      19.080020073312703      1.7431266908143026
    52   1      5.7978198317559437      21.702736261228807      1.7431266594316928
    53   1      7.1898529406448848      20.590650622474218  8.2799745690697082e-06
    54   1      4.7620885769983898      20.259433057709515  8.2830464562939002e-06
    55   1      8.2312139005599381      22.090213877745999      1.7431266527183671
    56   1      7.8978180221433423       24.57805443496482      1.7431266437094537
    57   1      9.2983719263395876      23.524523430181066  8.2550992244709009e-06
    58   1      6.8505376035202099      23.129722929134338  8.2595392768124774e-06
    59   1      10.365318834360391      24.964732194832973       1.743126640578524
    60   1       2.299052728978292      19.973724255009653  8.2748721381746545e-06
    61   1      3.3528106743573165      21.402318134072704      1.7431266551162226
    62   1      3.0389762246810892      23.888945942813198      1.7431266432238612
    63   1      4.4034656415059708      22.806507416913647  8.2592793907651044e-06
    64   1       1.958838680067517      22.488750872171092  8.2578052879964074e-06
    65   1      5.4814744014181365      24.166255688299788      1.7431266456056906
    66   1      4.1544050794257279      25.340462626831055  8.2518695325648369e-06
    67   1      1.5953926872434816      13.837828817688443       1.743126775264987
    68   1      10.310984634888589      13.837828817634476   8.385712614065215e-06
    69   1      17.270993619533343      10.504602864612869  8.4174059852994974e-06
    70   1       16.23966552636773      12.068381571817156      1.7431267815314313
    71   1      16.613411365582188         5.4219455161446  8.4485467520221692e-06
    72   1      16.946807110597643      7.9097860893826217  8.4395611203031794e-06
    73   1      14.513412983807482      8.2972637416080826  8.4328572471643521e-06
    74   1      15.905445927194441      9.4093493443850598      1.7431268123275458
    75   1      15.566130888940613      6.8702770328976648      1.7431268327325329
    76   1      14.865766411231849      10.919979978015888  8.4015112411003941e-06
    77   1      12.424592594020742      11.143141376510791  8.4089122276551593e-06
    78   1       13.82647023439946        12.3566829502814      1.7431267733727553
    79   1      13.477681555000514      9.7405670218168048      1.7431268092594916
    80   1      2.6506104454140473      12.506536287350542  8.3984819795573732e-06
    81   1      14.197067732648252      5.8337442943076843   8.446657203951477e-06
    82   1      11.754569571544193      6.1110540253855081  8.4490305542045961e-06
    83   1       13.11905891813551      7.1934925790747331       1.743126832991212
    84   1      12.869998467894625      4.6595373229416239      1.7431268403756586
    85   1      12.068403836587869        8.59768188777951  8.4371661926280669e-06
    86   1      9.6169010142710309      8.9633341043815804  8.4358509139031253e-06
    87   1       11.01464571895043      10.026275763591944      1.7431268174194809
    88   1      10.674431947955041      7.5112491097452523      1.7431268344635251
    89   1      9.9441154924800799      11.465302333300855  8.4141107275913494e-06
    90   1      7.5240735786450941      12.068381571808398  8.3919987010961413e-06
    91   1          8.555401671816      10.504602864595523       1.743126806957755
    92   1      10.365320266274752      5.0352677578878815       1.743126841250179
    93   1      9.2983733060014284      6.4754765232119942  8.4476608336871616e-06
    94   1      6.8505389412405497      6.8702770328847169  8.4432072267039789e-06
    95   1      8.2312151629026609        7.90978608936451      1.7431268291200381
    96   1      7.8978194178815526      5.4219455161233316      1.7431268381299416
    97   1      7.1898539795008842      9.4093493443764231  8.4228028644277773e-06
    98   1      4.7620896073008137      9.7405670218231162  8.4197230902566778e-06
    99   1      6.1501744635420232      10.919979978016382      1.7431267910641661
   100   1      5.7978210361059341      8.2972637415979911      1.7431268224015197
   101   1      5.1108782867176457      12.356682950288889   8.383859496286491e-06
   102   1      11.366202393095287      12.506536287322678      1.7431267880114389
   103   1      3.7090006463258507      11.143141376526668      1.7431267984580583
   104   1      4.1544065201793785      4.6595373229297934  8.4508158421257735e-06
   105   1      5.4814757849519964      5.8337442942787492      1.7431268361910959
   106   1      4.4034669704418183      7.1934925790611208  8.4434380145528427e-06
   107   1      1.9588400002620103      7.5112491097455329  8.4448958490092707e-06
   108   1      3.3528118888951792      8.5976818877771581      1.7431268266911968
   109   1      3.0389776238468085      6.1110540253793646       1.743126838539224
   110   1      2.2990537712569745       10.02627576359505  8.4278700419805714e-06
   111   1      1.2285235447816132      11.465302333275936       1.743126803642203
   112   1     0.90130906657820264       8.963334104394443      1.7431268253732166
   113   1      1.6497283185685772      5.0352677578964862  8.4516627572013984e-06
   114   1     0.58278135830712341      6.4754765232317748      1.7431268371615807
   115   1      1.5953922845287607      16.162171107590765       5.229363485711465
   116   1     0.14991914733642026      13.121925121967625      3.4862451682098481
   117   1      14.074914744663978      15.000000089955735      5.2293635200125097
   118   1      15.221850211792573      13.651858754006421      3.4862451450954617
   119   1      12.758732165456367      13.716298809336365      3.4862451499017526
   120   1      16.692997137290572      14.999999979043659       5.229363520006288
   121   1      16.239664902732436      17.931618394607916      5.2293634794247614
   122   1     0.14991870786393466      16.878074903760545      3.4862450927681299
   123   1      15.221849835002496      16.348141340789343      3.4862451158500418
   124   1      1.2285227246680717       18.53469761581783        5.22936345727567
   125   1     0.90130791102870544      21.036665879380827      5.2293634355120693
   126   1      17.270992740487959      19.495397117401581      3.4862450644279908
   127   1      8.8655110950866174      13.121925121978581      5.2293635577419799
   128   1      11.572573848466225      15.000000053555539      5.2293635200143447
   129   1      11.366201724160682      17.493463781532753      5.2293634729281093
   130   1      12.758731778843037      16.283701392997479      3.4862451110321944
   131   1      10.310984232285694      16.162171107535926      3.4862450961605465
   132   1       13.82646960406081      17.643317252915203      5.2293634875555304
   133   1      13.477680524700846      20.259433057712087      5.2293634516593555
   134   1      14.865765600631379      19.080020073325795      3.4862450803376914
   135   1      12.424591731150889      18.856858739684061      3.4862450729330678
   136   1      15.905444888347258      20.590650622511621      5.2293634485749898
   137   1      15.566129551213169      23.129722929184716      5.2293634281421308
   138   1      16.946805848257689      22.090213877802633      3.4862450422364661
   139   1      14.513411779452566      21.702736261263375      3.4862450489636316
   140   1     0.58277997864247733      23.524523430238553      5.2293634236765323
   141   1      1.6497268866909658      24.964732194876053      3.4862450300717174
   142   1       16.61340996983883      24.578054435029618      3.4862450332034949
   143   1      4.0431402177403095      13.716298809362861      5.2293635394688911
   144   1      6.5062582640832325      13.651858754020047      5.2293635346685168
   145   1      6.5062578873145211      16.348141340798595      5.2293635054197978
   146   1      7.9774051895953964      14.999999979042569      3.4862451304901234
   147   1      5.3593227969638262      15.000000089963963      3.4862451305096109
   148   1      8.8655106555092242      16.878074903755419      5.2293634823027846
   149   1      8.5554007928129643      19.495397117361236      5.2293634539811702
   150   1      9.9441146723679257      18.534697615831462      3.4862450677445112
   151   1      7.5240729550611585      17.931618394582959      3.4862450898940418
   152   1      11.014644676688393      19.973724254993595      5.2293634435004863
   153   1      10.674430627771553      22.488750872145605      5.2293634264546043
   154   1      12.068402622067827      21.402318134071621      3.4862450446717133
   155   1       9.616899858734401      21.036665879340845      3.4862450459913674
   156   1      13.119057589207907      22.806507416939755      5.2293634279115997
   157   1       12.86999702707517      25.340462626851039      5.2293634205030113
   158   1      14.197066349110017      24.166255688357221      3.4862450351497336
   159   1      11.754568172371535      23.888945942810832      3.4862450327932324
   160   1      2.8569819007634978      15.000000053538663      3.4862451304975894
   161   1      4.0431398311577924      16.283701393023684      5.2293635005974224
   162   1      3.7089997834440536      18.856858739700314      5.2293634624798324
   163   1      5.1108776563439511      17.643317252919402      3.4862450980402011
   164   1      2.6506097764408514      17.493463781564667      3.4862450833981473
   165   1       6.150173652923872      19.080020073312696      5.2293634698929097
   166   1      5.7978198317559437      21.702736261228807      5.2293634385103038
   167   1       7.189852940644883      20.590650622474215      3.4862450590531764
   168   1      4.7620885769983889      20.259433057709515      3.4862450621250654
   169   1      8.2312139005599381      22.090213877745999      5.2293634317969753
   170   1      7.8978180221433432      24.578054434964816      5.2293634227880599
   171   1      9.2983719263395876      23.524523430181066       3.486245034177831
   172   1      6.8505376035202099      23.129722929134338      3.4862450386178843
   173   1      10.365318834360391      24.964732194832973      5.2293634196571324
   174   1       2.299052728978292      19.973724255009653      3.4862450539507455
   175   1      3.3528106743573165      21.402318134072708      5.2293634341948323
   176   1      3.0389762246810892      23.888945942813198      5.2293634223024688
   177   1      4.4034656415059708      22.806507416913643      3.4862450383579984
   178   1      1.9588386800675168      22.488750872171089      3.4862450368838962
   179   1      5.4814744014181365      24.166255688299788      5.2293634246842968
   180   1      4.1544050794257288      25.340462626831055      3.4862450309481399
   181   1      1.5953926872434827      13.837828817688441      5.2293635543435935
   182   1      10.310984634888587      13.837828817634474      3.4862451647912209
   183   1      17.270993619533343      10.504602864612867      3.4862451964845933
   184   1      16.239665526367727      12.068381571817158      5.2293635606100395
   185   1      16.613411365582188      5.4219455161445991      3.4862452276253597
   186   1      16.946807110597646      7.9097860893826217      3.4862452186397275
   187   1      14.513412983807484      8.2972637416080826      3.4862452119358545
   188   1      15.905445927194442      9.4093493443850598      5.2293635914061536
   189   1      15.566130888940613      6.8702770328976648      5.2293636118111406
   190   1      14.865766411231851      10.919979978015888      3.4862451805898491
   191   1      12.424592594020742      11.143141376510789      3.4862451879908352
   192   1      13.826470234399457      12.356682950281401       5.229363552451364
   193   1      13.477681555000514       9.740567021816803      5.2293635883380993
   194   1      2.6506104454140469      12.506536287350544      3.4862451775605869
   195   1      14.197067732648252      5.8337442943076825      3.4862452257358116
   196   1      11.754569571544193      6.1110540253855063       3.486245228109162
   197   1      13.119058918135512      7.1934925790747339       5.229363612069819
   198   1      12.869998467894625       4.659537322941623      5.2293636194542659
   199   1      12.068403836587869      8.5976818877795083      3.4862452162447997
   200   1      9.6169010142710309      8.9633341043815804      3.4862452149295216
   201   1       11.01464571895043      10.026275763591944      5.2293635964980885
   202   1      10.674431947955041      7.5112491097452523       5.229363613542132
   203   1      9.9441154924800799      11.465302333300857       3.486245193189335
   204   1      7.5240735786450941      12.068381571808398       3.486245171077309
   205   1          8.555401671816      10.504602864595523      5.2293635860363628
   206   1      10.365320266274752      5.0352677578878815      5.2293636203287868
   207   1      9.2983733060014284       6.475476523211996      3.4862452267394421
   208   1      6.8505389412405489      6.8702770328847187      3.4862452222858344
   209   1      8.2312151629026626        7.90978608936451      5.2293636081986472
   210   1      7.8978194178815526      5.4219455161233316      5.2293636172085503
   211   1      7.1898539795008851      9.4093493443764213      3.4862452018814727
   212   1      4.7620896073008137      9.7405670218231144       3.486245198801698
   213   1      6.1501744635420224      10.919979978016384      5.2293635701427732
   214   1      5.7978210361059332      8.2972637415979911      5.2293636014801272
   215   1      5.1108782867176448      12.356682950288889      3.4862451629381037
   216   1      11.366202393095287      12.506536287322678      5.2293635670900436
   217   1      3.7090006463258502      11.143141376526666      5.2293635775366649
   218   1      4.1544065201793794      4.6595373229297925        3.48624522989445
   219   1      5.4814757849519973      5.8337442942787492      5.2293636152697038
   220   1      4.4034669704418183      7.1934925790611208      3.4862452225166223
   221   1       1.958840000262011      7.5112491097455329      3.4862452239744566
   222   1      3.3528118888951801      8.5976818877771564      5.2293636057698061
   223   1       3.038977623846808      6.1110540253793637      5.2293636176178309
   224   1      2.2990537712569745      10.026275763595049      3.4862452069486505
   225   1      1.2285235447816119      11.465302333275936      5.2293635827208105
   226   1     0.90130906657820298       8.963334104394443      5.2293636044518248
   227   1      1.6497283185685774      5.0352677578964871      3.4862452307413654
   228   1     0.58278135830712396      6.4754765232317748      5.2293636162401871
