(written by ASE)

288 atoms
1 atom types

0.0      22.325702763195491  xlo xhi
0.0                      30  ylo yhi
0.0      6.9724735581572146  zlo zhi

Atoms # atomic

     1   1      13.906548627347503      19.951612580867355     0.43135579603437352
     2   1      12.794239968932612      18.538906141800528      2.1744741622857293
     3   1      9.0184841416627854      19.121528894579672     0.43135575022195766
     4   1      10.356034633820016      17.964527468526459      2.1744741278785709
     5   1       7.947182449390044      17.674781570167458      2.1744741123485154
     6   1      11.427021873413594      19.521398235100094      0.4313557781556942
     7   1      11.191331233829848      22.122188211309389     0.43135581090993191
     8   1      12.540205797671929      21.042283811231048      2.1744741964991872
     9   1      10.095791393866687      20.643357262925267       2.174474174883918
    10   1      13.645881797862421      22.468215957550079     0.43135582159926905
    11   1      13.416888299164119      24.950465031893387     0.43135583197759264
    12   1      12.299978581705266      23.537749667761702      2.1744742148438068
    13   1      4.1249489842904028      18.813832375097871      0.4313557687918817
    14   1       5.499131042690764      17.598765621632037      2.1744741231125619
    15   1      3.0258736081270401       17.47532578250846      2.1744741392950071
    16   1       6.590860942049928      18.955805850313176     0.43135575229782869
    17   1      6.3034776131391093      21.549545196592835     0.43135579781660077
    18   1      7.6753039172873443      20.353687578740587      2.1744741625413466
    19   1      5.2234506303376111      20.172618172176197      2.1744741741984464
    20   1      8.7461789548854423      21.792795276549718      0.4313557970018283
    21   1      8.4866852648898998      24.304882979191959     0.43135581403638895
    22   1      9.8444894163574901      23.187129993925502      2.1744742029424859
    23   1      7.3975960760506707      22.908738530140582      2.1744741977220228
    24   1      10.930959929068781      24.618203262503467     0.43135582566009278
    25   1      21.518886015512177      17.964527468010303     0.43135573838627983
    26   1      1.6313885873045795      18.538906140911031     0.43135577282472021
    27   1      1.3773544161352858      21.042283810193872     0.43135580704850834
    28   1      2.7436972457717075       19.95161257973783      2.1744741856643981
    29   1     0.26417049192996483      19.521398234352528      2.1744741677646937
    30   1      3.8428484811773793      21.346059227569228      0.4313558105169773
    31   1       3.609788226791018      23.834432783240068     0.43135582725677701
    32   1       4.938294920637988      22.706134130680411      2.1744742069889229
    33   1        2.48303041630545      22.468215956315557      2.1744742112418276
    34   1      6.0649435324095755      24.013922818304263     0.43135581921582428
    35   1      4.7818384296866165       25.23897495395282      2.1744742174035134
    36   1      16.661982424228075      17.598765622606141     0.43135573350012113
    37   1      19.110033830954229      17.674781570663463     0.43135572277481277
    38   1      18.838155298940055      20.353687579203346      0.4313557729698515
    39   1       20.18133552331987      19.121528894547165      2.1744741397692926
    40   1       17.75371232365568      18.955805851157361      2.1744741417753652
    41   1      21.258642775553721      20.643357262477053     0.43135578538967712
    42   1       21.00734079818336      23.187129993485566     0.43135581345321888
    43   1    0.028479852317561755      22.122188210522541      2.1744742005227753
    44   1      19.909030336571721      21.792795276573898      2.1744741865443031
    45   1      1.1371272002281276       23.53774966667995     0.43135582540555212
    46   1      2.2540369176530377      24.950465030677151      2.1744742216304096
    47   1      22.093811311074589      24.618203261728304      2.1744742152915659
    48   1      14.188724989695912      17.475325783569939     0.43135574967481516
    49   1      15.287800365829145      18.813832376191304       2.174474158246523
    50   1       16.38630201188851      20.172618173238238     0.43135578457802132
    51   1       16.10114630228021      22.706134131814014     0.43135581735685474
    52   1      17.466328994739754      21.549545197453032      2.1744741872905604
    53   1      15.005699862728113      21.346059228796182      2.1744741999606139
    54   1      18.560447457812113      22.908738530635453     0.43135580814387137
    55   1       19.64953664695355      24.304882979225763       2.174474203588634
    56   1      17.227794914307957      24.013922819211938      2.1744742086742868
    57   1      14.772639608485759      23.834432784511659      2.1744742166900908
    58   1      15.944689811545427      25.238974955054601     0.43135582776690023
    59   1      21.939391503705853      15.000000006853465     0.43135567829782057
    60   1      20.477737862047587      16.359310548332921      2.1744740886461305
    61   1      21.258642453575881      9.3566427474119216     0.43135557122342399
    62   1      21.518885824448404      12.035472545328899     0.43135561822676344
    63   1      19.110033640116857      12.325218356501431     0.43135563375027069
    64   1      20.477737751492654      13.640689424252482      2.1744740469895913
    65   1      20.181335276271966      10.878471090630516      2.1744739958783263
    66   1      19.323962085111994      14.999999968906968     0.43135567826599575
    67   1      16.827653955854693      14.999999966499471     0.43135567825013077
    68   1       18.01376704057574      16.312077502926236       2.174474093239589
    69   1       18.01376693266101       13.68792241700832      2.1744740423388298
    70   1      15.548193653708188      16.269237380281435      2.1744740998604426
    71   1      21.007340389829778      6.8128700134807536     0.43135554315365032
    72   1      18.560447052918946      7.0912614279887318     0.43135554837229062
    73   1      19.909029964130447      8.2072047035973714      2.1744739490953142
    74   1      19.649536231574373      5.6951170062742609      2.1744739320597248
    75   1      18.838154985042848      9.6463123695857877     0.43135558355888698
    76   1      16.386301683588702      9.8273817654029063     0.43135557189897722
    77   1       17.75371206604234      11.044194066195358       2.174473993796791
    78   1       17.46632861930469      8.4504547426067695      2.1744739482801987
    79   1      16.661982225589245      12.401234299805166     0.43135562298849772
    80   1       14.18872478497825      12.524674193783868     0.43135560680019019
    81   1      15.548193539081279      13.730762566481657      2.1744740357059817
    82   1      15.287800091630348      11.186167576639486       2.174473977313943
    83   1      14.342518725810304      14.999999985847124     0.43135567823575188
    84   1      11.671324090223079      16.899628146472718     0.43135573327873433
    85   1      13.099318270708814      16.162921291300222      2.1744741167272177
    86   1      13.099318153250891       13.83707873279956      2.1744740188610976
    87   1      15.944689355174701      4.7610250146903255     0.43135552869966198
    88   1      17.227794489965881      5.9860771296808153      2.1744739268875422
    89   1      16.101145890729544      7.2938658222809662      0.4313555391113042
    90   1      13.645881389586746        7.53178403121467       0.431355534853816
    91   1      15.005699483892652      8.6539407370275452      2.1744739355793703
    92   1      14.772639173381041      6.1655671919441621      2.1744739188446736
    93   1      13.906548299494244      10.048387402038717     0.43135556043103873
    94   1      11.427021600099343      10.478601770827888     0.43135557833463556
    95   1      12.794239714561748      11.461093872384414      2.1744739732812408
    96   1      12.540205437762252       8.957716189872496      2.1744739390501833
    97   1      11.671323960439356      13.100371842072306      0.4313556232212965
    98   1      9.3148863698501891      13.640689424298866     0.43135565745631332
    99   1      10.776540122099494      15.000000007404257       2.174474067810515
   100   1      10.356034442929788      12.035472545904289      2.1744740077166118
   101   1      9.3148864804568703       16.35931054836913     0.43135569911216026
   102   1      6.8509156590289688      16.312077502153098     0.43135570375189281
   103   1      8.1611107034935682      14.999999968515057      2.1744740678345824
   104   1      13.416887847597097      5.0495349632798439     0.43135552446908504
   105   1      10.930959500020485      5.3817967497128469     0.43135553079884387
   106   1      12.299978155838861      6.4622503390490138      2.1744739206874182
   107   1      11.191330845521676      7.8778117992283878     0.43135554556860262
   108   1      8.7461785826073051      8.2072047036138187     0.43135555955236393
   109   1      10.095791072049003      9.3566427479292216      2.1744739607127763
   110   1      9.8444890084614318      6.8128700139964202      2.1744739326343536
   111   1      9.0184838947071331      10.878471090697904     0.43135560633119563
   112   1      6.5908606844215436      11.044194065339882     0.43135560432426756
   113   1      7.9471822584534575       12.32521835600885      2.1744740233268787
   114   1      7.6753036034769098      9.6463123691327226      2.1744739731338143
   115   1        6.85091555097405      13.687922416232185     0.43135565285285482
   116   1       4.385342157495983      13.730762565470775     0.43135564624690842
   117   1      5.6648025742362744      14.999999965576389      2.1744740678578509
   118   1      5.4991308438969533      12.401234298818906      2.1744740126054398
   119   1      4.3853422720638093      16.269237379277655     0.43135571039873394
   120   1      1.9364668891646293      16.162921290256651     0.43135572726426086
   121   1      3.1796673441905656      14.999999984925426      2.1744740678539549
   122   1      8.4866848504688477      5.6951170062817482     0.43135554250371561
   123   1      6.0649431086902101      5.9860771287404972     0.43135553743862182
   124   1          7.397595671485      7.0912614275009442      2.1744739379542217
   125   1      6.3034772376892763      8.4504547417240179     0.43135555881305998
   126   1      3.8428481022320113      8.6539407357281899     0.43135554614770366
   127   1      5.2234503019170662      9.8273817643043699      2.1744739615273483
   128   1       4.938294509174737      7.2938658210896063      2.1744739287550114
   129   1      4.1249487099462243      11.186167575510099     0.43135558786748429
   130   1      1.6313883329939958       11.46109387145245     0.43135558382697026
   131   1      3.0258734033294243      12.524674192698724       2.174473996425017
   132   1      2.7436969178627133      10.048387400846361      2.1744739500708201
   133   1      1.9364667715744577      13.837078731743603     0.43135562940184496
   134   1      0.5084727085622287      16.899628145791443      2.1744741228861866
   135   1     0.50847257891634356      13.100371841318294      2.1744740128305104
   136   1      4.7818379738835235      4.7610250135185783      2.1744739183485815
   137   1      3.6097877918938068      6.1655671905781562     0.43135552942542915
   138   1      1.1371267741220707      6.4622503378559157     0.43135553126328985
   139   1      2.4830300079473857      7.5317840298821608      2.1744739245100719
   140   1      2.2540364659306853      5.0495349619518599      2.1744739141372422
   141   1      1.3773540561063111      8.9577161887480017     0.43135554961043976
   142   1     0.26417021840490135      10.478601770005778      2.1744739679500746
   143   1    0.028479463847288188       7.877811798347099      2.1744739351915534
   144   1      22.093810881196298      5.3817967488376315      2.1744739204441612
   145   1      13.906548627347505      19.951612580867355      3.9175925751129776
   146   1      12.794239968932606      18.538906141800531      5.6607109413643348
   147   1       9.018484141662789      19.121528894579672      3.9175925293005651
   148   1      10.356034633820018      17.964527468526459      5.6607109069571804
   149   1      7.9471824493900414      17.674781570167454      5.6607108914271214
   150   1      11.427021873413594      19.521398235100097       3.917592557234304
   151   1       11.19133123382985      22.122188211309386      3.9175925899885411
   152   1      12.540205797671932      21.042283811231044      5.6607109755777909
   153   1      10.095791393866689      20.643357262925267      5.6607109539625267
   154   1      13.645881797862423      22.468215957550083      3.9175926006778772
   155   1      13.416888299164119      24.950465031893387       3.917592611056202
   156   1      12.299978581705268      23.537749667761702      5.6607109939224207
   157   1      4.1249489842904028      18.813832375097871      3.9175925478704903
   158   1       5.499131042690764      17.598765621632037      5.6607109021911688
   159   1      3.0258736081270392       17.47532578250846      5.6607109183736153
   160   1       6.590860942049928      18.955805850313176      3.9175925313764344
   161   1       6.303477613139111      21.549545196592838      3.9175925768952107
   162   1      7.6753039172873416       20.35368757874059       5.660710941619957
   163   1      5.2234506303376103      20.172618172176193      5.6607109532770554
   164   1      8.7461789548854423      21.792795276549718      3.9175925760804367
   165   1      8.4866852648899016      24.304882979191959       3.917592593114998
   166   1      9.8444894163574901      23.187129993925502      5.6607109820210981
   167   1      7.3975960760506707      22.908738530140578       5.660710976800627
   168   1      10.930959929068779      24.618203262503467      3.9175926047387009
   169   1      21.518886015512177      17.964527468010303       3.917592517464886
   170   1       1.631388587304581      18.538906140911031      3.9175925519033266
   171   1      1.3773544161352875      21.042283810193876      3.9175925861271157
   172   1      2.7436972457717062       19.95161257973783      5.6607109647430045
   173   1     0.26417049192996461      19.521398234352532      5.6607109468433006
   174   1      3.8428484811773798      21.346059227569228      3.9175925895955843
   175   1      3.6097882267910197      23.834432783240061      3.9175926063353854
   176   1      4.9382949206379898      22.706134130680411      5.6607109860675306
   177   1      2.4830304163054513      22.468215956315554      5.6607109903204371
   178   1      6.0649435324095764      24.013922818304263      3.9175925982944309
   179   1      4.7818384296866165      25.238974953952816      5.6607109964821207
   180   1      16.661982424228075      17.598765622606148      3.9175925125787288
   181   1      19.110033830954237      17.674781570663463      3.9175925018534219
   182   1      18.838155298940062      20.353687579203349      3.9175925520484571
   183   1       20.18133552331987      19.121528894547165      5.6607109188479017
   184   1       17.75371232365568      18.955805851157358      5.6607109208539779
   185   1      21.258642775553714       20.64335726247705      3.9175925644682867
   186   1       21.00734079818336      23.187129993485563      3.9175925925318231
   187   1    0.028479852317562455      22.122188210522545      5.6607109796013848
   188   1      19.909030336571721      21.792795276573898      5.6607109656229069
   189   1      1.1371272002281283      23.537749666679954      3.9175926044841578
   190   1      2.2540369176530368      24.950465030677151      5.6607110007090204
   191   1      22.093811311074589      24.618203261728304      5.6607109943701754
   192   1      14.188724989695915      17.475325783569939      3.9175925287534183
   193   1      15.287800365829149      18.813832376191304      5.6607109373251312
   194   1       16.38630201188851      20.172618173238238      3.9175925636566244
   195   1       16.10114630228021      22.706134131814011      3.9175925964354597
   196   1      17.466328994739754      21.549545197453028      5.6607109663691668
   197   1      15.005699862728115      21.346059228796179      5.6607109790392203
   198   1       18.56044745781211       22.90873853063545      3.9175925872224799
   199   1       19.64953664695355      24.304882979225763      5.6607109826672417
   200   1       17.22779491430796      24.013922819211935      5.6607109877528936
   201   1      14.772639608485763      23.834432784511662      5.6607109957687003
   202   1      15.944689811545429      25.238974955054605       3.917592606845512
   203   1      21.939391503705853      15.000000006853467      3.9175924573764278
   204   1      20.477737862047583      16.359310548332921      5.6607108677247338
   205   1      21.258642453575881      9.3566427474119198      3.9175923503020322
   206   1      21.518885824448404      12.035472545328897      3.9175923973053708
   207   1      19.110033640116857      12.325218356501431      3.9175924128288777
   208   1      20.477737751492654      13.640689424252486      5.6607108260681986
   209   1      20.181335276271962      10.878471090630516      5.6607107749569323
   210   1       19.32396208511199      14.999999968906971      3.9175924573446061
   211   1      16.827653955854693      14.999999966499471      3.9175924573287371
   212   1      18.013767040575736       16.31207750292624      5.6607108723181989
   213   1       18.01376693266101      13.687922417008322      5.6607108214174362
   214   1      15.548193653708184      16.269237380281435      5.6607108789390503
   215   1      21.007340389829775      6.8128700134807527      3.9175923222322564
   216   1      18.560447052918949      7.0912614279887309      3.9175923274508961
   217   1      19.909029964130447      8.2072047035973714      5.6607107281739184
   218   1      19.649536231574377      5.6951170062742609      5.6607107111383312
   219   1      18.838154985042848      9.6463123695857895      3.9175923626374938
   220   1      16.386301683588705      9.8273817654029063      3.9175923509775852
   221   1       17.75371206604234      11.044194066195359      5.6607107728753991
   222   1       17.46632861930469      8.4504547426067678      5.6607107273588069
   223   1      16.661982225589249      12.401234299805166      3.9175924020671062
   224   1       14.18872478497825      12.524674193783868      3.9175923858787964
   225   1       15.54819353908128      13.730762566481655      5.6607108147845899
   226   1       15.28780009163035      11.186167576639484      5.6607107563925467
   227   1      14.342518725810308       14.99999998584712      3.9175924573143623
   228   1      11.671324090223079      16.899628146472718      3.9175925123573396
   229   1      13.099318270708814      16.162921291300222      5.6607108958058285
   230   1      13.099318153250893      13.837078732799563      5.6607107979397053
   231   1      15.944689355174702      4.7610250146903237      3.9175923077782708
   232   1      17.227794489965884      5.9860771296808144      5.6607107059661521
   233   1      16.101145890729544       7.293865822280968      3.9175923181899139
   234   1      13.645881389586741      7.5317840312146718      3.9175923139324262
   235   1      15.005699483892654      8.6539407370275452      5.6607107146579789
   236   1      14.772639173381041      6.1655671919441604      5.6607106979232862
   237   1      13.906548299494247      10.048387402038717      3.9175923395096479
   238   1      11.427021600099343      10.478601770827886      3.9175923574132421
   239   1      12.794239714561748      11.461093872384412      5.6607107523598499
   240   1      12.540205437762252      8.9577161898724977      5.6607107181287919
   241   1      11.671323960439356      13.100371842072306      3.9175924022999022
   242   1      9.3148863698501927      13.640689424298865      3.9175924365349224
   243   1      10.776540122099494      15.000000007404255      5.6607108468891232
   244   1      10.356034442929788      12.035472545904289      5.6607107867952164
   245   1      9.3148864804568703       16.35931054836913      3.9175924781907665
   246   1      6.8509156590289706      16.312077502153102      3.9175924828305009
   247   1      8.1611107034935682      14.999999968515056      5.6607108469131893
   248   1      13.416887847597099       5.049534963279843      3.9175923035476932
   249   1      10.930959500020485      5.3817967497128469      3.9175923098774521
   250   1      12.299978155838861      6.4622503390490147      5.6607106997660237
   251   1      11.191330845521678      7.8778117992283878        3.91759232464721
   252   1      8.7461785826073033      8.2072047036138187      3.9175923386309712
   253   1      10.095791072049003      9.3566427479292233      5.6607107397913845
   254   1      9.8444890084614318      6.8128700139964202      5.6607107117129623
   255   1      9.0184838947071349      10.878471090697904      3.9175923854098027
   256   1      6.5908606844215409      11.044194065339882      3.9175923834028743
   257   1      7.9471822584534575      12.325218356008852      5.6607108024054877
   258   1      7.6753036034769098      9.6463123691327226      5.6607107522124229
   259   1      6.8509155509740491      13.687922416232185      3.9175924319314634
   260   1      4.3853421574959839      13.730762565470773      3.9175924253255174
   261   1      5.6648025742362735      14.999999965576391      5.6607108469364595
   262   1      5.4991308438969533      12.401234298818906      5.6607107916840489
   263   1       4.385342272063812      16.269237379277655      3.9175924894773422
   264   1      1.9364668891646304      16.162921290256655       3.917592506342868
   265   1      3.1796673441905638      14.999999984925424      5.6607108469325667
   266   1      8.4866848504688459      5.6951170062817482       3.917592321582323
   267   1      6.0649431086902084      5.9860771287404981      3.9175923165172284
   268   1      7.3975956714849991      7.0912614275009442      5.6607107170328295
   269   1      6.3034772376892754      8.4504547417240197      3.9175923378916675
   270   1        3.84284810223201      8.6539407357281899      3.9175923252263107
   271   1      5.2234503019170653      9.8273817643043699      5.6607107406059551
   272   1      4.9382945091747361      7.2938658210896055      5.6607107078336192
   273   1      4.1249487099462243      11.186167575510098      3.9175923669460913
   274   1      1.6313883329939995      11.461093871452453      3.9175923629055789
   275   1      3.0258734033294252      12.524674192698724      5.6607107755036257
   276   1      2.7436969178627124      10.048387400846361       5.660710729149427
   277   1      1.9364667715744559      13.837078731743601      3.9175924084804512
   278   1     0.50847270856222959      16.899628145791443      5.6607109019647943
   279   1     0.50847257891634301      13.100371841318292      5.6607107919091195
   280   1      4.7818379738835244      4.7610250135185792      5.6607106974271897
   281   1      3.6097877918938068      6.1655671905781579      3.9175923085040361
   282   1      1.1371267741220705      6.4622503378559166      3.9175923103418961
   283   1       2.483030007947387      7.5317840298821617      5.6607107035886788
   284   1      2.2540364659306853      5.0495349619518608      5.6607106932158509
   285   1      1.3773540561063151      8.9577161887479981      3.9175923286890471
   286   1     0.26417021840490035      10.478601770005778      5.6607107470286859
   287   1    0.028479463847287466       7.877811798347099      5.6607107142701638
   288   1      22.093810881196301      5.3817967488376333      5.6607106995227703
