(written by ASE)

276 atoms
1 atom types

0.0      21.203016342814241  xlo xhi
0.0                      30  ylo yhi
0.0      6.9724735581572146  zlo zhi

Atoms # atomic

     1   1      9.0931438966440385      16.820292478618423      1.7431183868037083
     2   1      9.7321298096309867      20.344936960686244      1.7431183868024793
     3   1      9.4160517369990551      18.558478358598389      3.4862367763427056
     4   1       10.32673492089671      23.900632879250235      1.7431183868018085
     5   1      10.035131080956239      22.132713936364389      3.4862367763414208
     6   1      5.6181034213220808      16.969371417843831      1.7431183868038365
     7   1      7.3402441419929731      16.892257783026128      3.4862367763429907
     8   1      7.6546049411705459       18.77307742756879      1.7431183868030049
     9   1      6.2997801549253021      20.903063505230669      1.7431183868022877
    10   1      8.0020267154381433      20.605614365094816      3.4862367763417264
    11   1       5.982574433488506      19.003630874535911      3.4862367763422477
    12   1      8.3169148025792445      22.411649977712422      1.7431183868019595
    13   1       6.936467987190543      24.464880129457931      1.7431183868016931
    14   1      8.6264707413432689      24.172867002759979      3.4862367763410522
    15   1      6.6079571077051105      22.705940067690147      3.4862367763412254
    16   1      2.3541797678946694      17.930828257583247      1.7431183868037019
    17   1      4.0475345968225414      17.473681750111108      3.4862367763431341
    18   1      2.0662438015648674      16.204348366777921       3.486236776337829
    19   1      4.3228506810192373      19.359741281031052      1.7431183868028646
    20   1      2.8777119328039293      21.546198640861689      1.7431183868022715
    21   1      4.5953942383631583      21.203646921568247      3.4862367763416313
    22   1        2.61224969220507      19.708960873120425      3.4862367763427948
    23   1      4.8943124954076636      23.011791213427557      1.7431183868018587
    24   1      3.5557442698930708      25.081175404720437      1.7431183868016513
    25   1      5.2533571775908579      24.766650657578886      3.4862367763409785
    26   1      3.1685709054266056      23.344135694375595      3.4862367763411206
    27   1     0.32893067872671072      16.587735740172043      1.7431183868044662
    28   1      20.017559895968574      18.558478366886014      1.7431183868034379
    29   1     0.58879318418219184      18.292524020691435      3.4862367763432718
    30   1      19.694652057988403      16.820292474404734      3.4862367763435853
    31   1     0.87839308326794052      20.058893219347159      1.7431183868029663
    32   1      20.636639254108701      22.132713939557156      1.7431183868021536
    33   1      1.1565660154000579      21.856962619661587      3.4862367763416429
    34   1      20.333637977229859      20.344936970137727      3.4862367763420945
    35   1      1.4424306631164052      23.648956864357967      1.7431183868018321
    36   1      1.7796799484635262      25.448173176255196      3.4862367763409172
    37   1      20.928243094786481      23.900632879404924      3.4862367763411259
    38   1      17.941752300316097      16.892257786995174      1.7431183868042477
    39   1      16.584082610857731      19.003630899867996      1.7431183868028486
    40   1      18.256113110929423      18.773077431195158      3.4862367763423601
    41   1      16.219611579835835      16.969371431341269      3.4862367763429782
    42   1       18.60353488735586      20.605614373743581      1.7431183868024422
    43   1      17.209465280083354      22.705940073188607      1.7431183868018993
    44   1      18.918422975481796      22.411649983838753      3.4862367763413302
    45   1      16.901288328957783      20.903063516793683      3.4862367763416291
    46   1      19.227978914555145      24.172867006277645      1.7431183868017726
    47   1      17.537976159192247      24.464880133281017      3.4862367763410274
    48   1      12.667752062034488      16.204348292255165      1.7431183868143594
    49   1      14.649042773569212      17.473681830073829      1.7431183868031681
    50   1      13.213757859105092      19.708960892078718      1.7431183868020161
    51   1      14.924358850469909      19.359741311743605      3.4862367763422046
    52   1      12.955687950667393      17.930828255672086      3.4862367763430244
    53   1      15.196902408691514      21.203646933417907      1.7431183868021751
    54   1      13.770079074932369      23.344135699054284      1.7431183868018738
    55   1      15.495820666611344      23.011791219394407      3.4862367763411721
    56   1       13.47922010022471      21.546198651548703      3.4862367763415643
    57   1      15.854865348729529      24.766650661307118      1.7431183868016755
    58   1      14.157252440196094      25.081175407908546      3.4862367763409448
    59   1      10.930438880726509      16.587735727660231      3.4862367763437727
    60   1      11.190301385223053      18.292523995057504      1.7431183868035511
    61   1      11.479901254477909      20.058893216028878      3.4862367763422393
    62   1      11.758074183757092       21.85696262255961      1.7431183868021047
    63   1      12.043938831622988      23.648956868420711      3.4862367763411064
    64   1      12.381188118376789      25.448173179151325      1.7431183868016402
    65   1      17.772611204843319      14.999999992469059       3.486236776344231
    66   1   0.0084895982589190573       14.99999998017735      3.4862367763442301
    67   1       10.60999776966602      14.999999988785142      1.7431183868049265
    68   1      19.515272194877806      14.999999982524081      1.7431183868049276
    69   1      5.3117816972168921      14.999999966574354      3.4862367763442297
    70   1      7.1711030334362142      14.999999991189913      1.7431183868049249
    71   1      8.9137640234707245      14.999999983446884      3.4862367763442283
    72   1      3.4756514366944611      15.000000528969906      1.7431183868049251
    73   1      14.077159608101564      15.000000141420299      3.4862367763442301
    74   1      20.928243093711256      6.0993671167052677       3.486236776347333
    75   1      20.333637994274852      9.6550630511162314      3.4862367763463622
    76   1      20.636639256550325      7.8672860637890984      1.7431183868076967
    77   1      19.694652068265768      13.179707504197648      3.4862367763448767
    78   1      20.017559932004634      11.441521648959617      1.7431183868064135
    79   1      17.537976161505004      5.5351198691204377      3.4862367763474293
    80   1      19.227978915459417      5.8271329951522031      1.7431183868080788
    81   1      18.918422981457397      7.5883500203937926      3.4862367763471274
    82   1      16.901288339846822      9.0969364767439931      3.4862367763468298
    83   1      18.603534900754543      9.3943856304233062      1.7431183868074087
    84   1      17.209465284898176      7.2940599273947822      1.7431183868079507
    85   1      18.256113119832477      11.226922559639567      3.4862367763460989
    86   1      16.219611576865834      13.030628552989283      3.4862367763454811
    87   1      17.941752296475666      13.107742194780673      1.7431183868056062
    88   1      16.584082626308223      10.996369080596514       1.743118386807001
    89   1      14.157252442914618      4.9188245914551532      3.4862367763475142
    90   1      15.854865351462449      5.2333493389608714       1.743118386808173
    91   1      15.495820670510446      6.9882087790128127      3.4862367763472872
    92   1      13.479220104052414      8.4538013411893207       3.486236776346896
    93   1      15.196902416019586      8.7963530608566742      1.7431183868076765
    94   1      13.770079077858663      6.6558642989070975      1.7431183868079774
    95   1      14.924358859573703      10.640258666470734      3.4862367763462547
    96   1      12.955687965248634      12.069171742206247      3.4862367763454372
    97   1      14.649042784308305      12.526318107934674      1.7431183868066813
    98   1      13.213757863035104      10.291039093061523      1.7431183868078357
    99   1      12.667752132112298      13.795651756751715      1.7431183867954927
   100   1      1.1565660128319064       8.143037370908214      3.4862367763468152
   101   1     0.58879326795684317       11.70747604496321      3.4862367763451871
   102   1      12.381188121387739      4.5518268185132493      1.7431183868082134
   103   1      12.043938834279112      6.3510431279687367      3.4862367763473547
   104   1      10.035131086888546      7.8672860605963209      3.4862367763470399
   105   1      11.758074187289118       8.143037373806207      1.7431183868077484
   106   1      10.326734924786777       6.099367116550563      1.7431183868080462
   107   1      11.479901261161123       9.941106783206358       3.486236776346221
   108   1      9.4160517481599371      11.441521640671986      3.4862367763457525
   109   1      11.190301409730221       11.70747601932926      1.7431183868062998
   110   1      9.7321298190594927      9.6550630416647358      1.7431183868073734
   111   1        10.9304389044096      13.412264270258643      3.4862367763446871
   112   1      9.0931438867959624      13.179707508411374      1.7431183868061424
   113   1      8.6264707458570342      5.8271329916345564      3.4862367763474089
   114   1       6.607957114462164      7.2940599218963555      3.4862367763472348
   115   1      8.3169148115457094      7.5883500142674647       1.743118386807893
   116   1      6.9364679906924476      5.5351198652973839      1.7431183868081601
   117   1      8.0020267298580325       9.394385621774541      3.4862367763467326
   118   1      5.9825744608632201      10.996369055264442      3.4862367763462099
   119   1      7.6546049467771473      11.226922556013188      1.7431183868068465
   120   1      6.2997801710650565      9.0969364651810114      1.7431183868075628
   121   1      7.3402441119845854      13.107742190811631      3.4862367763454674
   122   1       5.618103392565426      13.030628539491804      1.7431183868060154
   123   1       5.253357179786855      5.2333493352326759      3.4862367763474822
   124   1      3.1685709045501746      6.6558642942284472      3.4862367763473388
   125   1       4.894312498899871      6.9882087730459963      1.7431183868079922
   126   1      3.5557442704033879      4.9188245882670829      1.7431183868082001
   127   1      4.5953942435336961      8.7963530490070543      3.4862367763468263
   128   1      2.6122496871208871      10.291039074103262      3.4862367763456628
   129   1      4.3228506862101392      10.640258635758263      1.7431183868069846
   130   1      2.8777119286589485      8.4538013305023423       1.743118386807579
   131   1      4.0475346182407881      12.526318027972142      3.4862367763453253
   132   1       2.066244049767552      13.795651831274574      3.4862367763506308
   133   1      2.3541798052071421      12.069171744117499      1.7431183868061486
   134   1     0.87839308955685647      9.9411067865246778      1.7431183868068834
   135   1      0.3289307635951339      13.412264282770462      1.7431183868053866
   136   1      1.7796799484867609       4.551826815617142      3.4862367763475439
   137   1        1.44243065997145      6.3510431239060168      1.7431183868080196
   138   1      15.913289868624011      14.999999988777343      1.7431183868049263
   139   1      9.0931438966439853      16.820292478618391      5.2293551658830397
   140   1      9.7321298096310329      20.344936960686297      5.2293551658814605
   141   1      9.4160517369995347      18.558478358597121 -2.7358841024509853e-09
   142   1      10.326734920896703      23.900632879250221      5.2293551658803938
   143   1      10.035131080956287      22.132713936364272 -2.7371793227781197e-09
   144   1      5.6181034213224903       16.96937141784419      5.2293551658822377
   145   1      7.3402441419925104      16.892257783026018 -2.7352149403022483e-09
   146   1      7.6546049411707378      18.773077427568886      5.2293551658816675
   147   1      6.2997801549252257      20.903063505230502      5.2293551658809347
   148   1      8.0020267154382001      20.605614365094453 -2.7368770569762701e-09
   149   1      5.9825744334885496      19.003630874535816 -2.7364300464111953e-09
   150   1      8.3169148025792161      22.411649977712401      5.2293551658806265
   151   1      6.9364679871905626      24.464880129457967      5.2293551658803272
   152   1      8.6264707413433133       24.17286700275994 -2.7375545409087976e-09
   153   1      6.6079571077051522      22.705940067690065 -2.7374049706726642e-09
   154   1      2.3541797678963823      17.930828257577694      5.2293551658823469
   155   1      4.0475345968226462      17.473681750110984 -2.7359451840924338e-09
   156   1      2.0662438015648661      16.204348366777925 -2.7293787790045062e-09
   157   1      4.3228506810189664      19.359741281030619      5.2293551658815254
   158   1      2.8777119328039671      21.546198640862055      5.2293551658808868
   159   1      4.5953942383631734      21.203646921568215  -2.737081857813381e-09
   160   1      2.6122496922050473      19.708960873120418 -2.7368626319541839e-09
   161   1      4.8943124954077115      23.011791213427607      5.2293551658804844
   162   1      3.5557442698930526      25.081175404720408      5.2293551658802686
   163   1      5.2533571775908614       24.76665065757884 -2.7376265999809541e-09
   164   1      3.1685709054266042      23.344135694375584 -2.7374310563443968e-09
   165   1     0.32893067872975246      16.587735740170221      5.2293551658830859
   166   1      20.017559895968844      18.558478366885296      5.2293551658820174
   167   1     0.58879318418215176      18.292524020691435 -2.7356251882257136e-09
   168   1      19.694652057988314       16.82029247440467 -2.7354301231648762e-09
   169   1     0.87839308326827148      20.058893219346448      5.2293551658815591
   170   1      20.636639254108729      22.132713939557089      5.2293551658807491
   171   1      1.1565660154000654      21.856962619661601 -2.7371144303743041e-09
   172   1      20.333637977229941      20.344936970137812 -2.7367205064982653e-09
   173   1      1.4424306631163799       23.64895686435807        5.22935516588044
   174   1      1.7796799484635155      25.448173176255185 -2.7376499046471602e-09
   175   1      20.928243094786463      23.900632879404899  -2.737471346830799e-09
   176   1      17.941752300315834       16.89225778699511      5.2293551658821427
   177   1      16.584082610857756      19.003630899867947      5.2293551658815822
   178   1      18.256113110929761      18.773077431195315   -2.73627969117945e-09
   179   1      16.219611579836563      16.969371431341902 -2.7355125647515352e-09
   180   1      18.603534887355892      20.605614373743375      5.2293551658810458
   181   1      17.209465280083379      22.705940073188568      5.2293551658805493
   182   1       18.91842297548175      22.411649983838714 -2.7373098004000778e-09
   183   1      16.901288328957651      20.903063516793384 -2.7370009595375276e-09
   184   1       19.22797891455517       24.17286700627762      5.2293551658803779
   185   1      17.537976159192279      24.464880133281078  -2.737593989885304e-09
   186   1      12.667752062034484      16.204348292255165      5.2293551658726747
   187   1      14.649042773569269      17.473681830073762      5.2293551658826187
   188   1      13.213757859105081      19.708960892078718       5.229355165882497
   189   1      14.924358850469424      19.359741311742823 -2.7364305905838842e-09
   190   1      12.955687950670439      17.930828255662195 -2.7356062752973498e-09
   191   1      15.196902408691525      21.203646933417886      5.2293551658809738
   192   1       13.77007907493237      23.344135699054277      5.2293551658803841
   193   1      15.495820666611429      23.011791219394496  -2.737445198708209e-09
   194   1      13.479220100224778      21.546198651549375 -2.7370474841428089e-09
   195   1      15.854865348729531      24.766650661307093      5.2293551658802793
   196   1      14.157252440196068      25.081175407908489 -2.7376668308097456e-09
   197   1       10.93043888073192      16.587735727656991 -2.7348425987117196e-09
   198   1       11.19030138522303      18.292523995057504      5.2293551658826765
   199   1        11.4799012544785       20.05889321602762  -2.736359873269114e-09
   200   1      11.758074183757097      21.856962622559617        5.22935516588098
   201   1      12.043938831622942      23.648956868420914 -2.7375005814750634e-09
   202   1      12.381188118376787      25.448173179151322      5.2293551658801709
   203   1      17.772611204843319      14.999999992469357  -2.734375770621971e-09
   204   1     0.00848959825891747       14.99999998017733 -2.7343777409947423e-09
   205   1      10.609997769666018      14.999999988785131      5.2293551658835336
   206   1      19.515272194877806      14.999999982524173      5.2293551658835353
   207   1      5.3117816972168912      14.999999966574377 -2.7343776263189956e-09
   208   1      7.1711030334362134       14.99999999119008      5.2293551658835327
   209   1      8.9137640234707245      14.999999983447053 -2.7343771418465429e-09
   210   1      3.4756514366944629       15.00000052899887      5.2293551658835327
   211   1      14.077159608101562      15.000000141471862 -2.7343773241682523e-09
   212   1      20.928243093711274      6.0993671167052392 -2.7312854001349638e-09
   213   1      20.333637994274774       9.655063051116322 -2.7320344626028125e-09
   214   1      20.636639256550296      7.8672860637890327      5.2293551658863171
   215   1      19.694652068265857      13.179707504197582 -2.7333251845194867e-09
   216   1      20.017559932004367      11.441521648958902      5.2293551658850479
   217   1      17.537976161504979      5.5351198691204955 -2.7311628393162775e-09
   218   1      19.227978915459392      5.8271329951521782      5.2293551658866866
   219   1      18.918422981457446      7.5883500203937517 -2.7314468217728966e-09
   220   1       16.90128833984696      9.0969364767436929 -2.7317561433599653e-09
   221   1      18.603534900754514      9.3943856304231002      5.2293551658860205
   222   1      17.209465284898155      7.2940599273947351      5.2293551658865169
   223   1       18.25611311983214      11.226922559639728  -2.732476516712476e-09
   224   1      16.219611576865109      13.030628552989919 -2.7332408238491418e-09
   225   1      17.941752296475922      13.107742194780613      5.2293551658849244
   226   1      16.584082626308202      10.996369080596462      5.2293551658854849
   227   1      14.157252442914647      4.9188245914550999 -2.7310881081421387e-09
   228   1      15.854865351462447      5.2333493389608448      5.2293551658867887
   229   1      15.495820670510364      6.9882087790128997 -2.7313113395465308e-09
   230   1       13.47922010405235      8.4538013411899868 -2.7317062119306567e-09
   231   1      15.196902416019579      8.7963530608566529      5.2293551658860942
   232   1      13.770079077858663      6.6558642989070922      5.2293551658866848
   233   1      14.924358859574186      10.640258666469952 -2.7323241892729771e-09
   234   1      12.955687965245584      12.069171742196353 -2.7331504200088145e-09
   235   1      14.649042784308248      12.526318107934603      5.2293551658844519
   236   1      13.213757863035118      10.291039093061519      5.2293551658845718
   237   1      12.667752132112298      13.795651756751719      5.2293551658943951
   238   1      1.1565660128318971      8.1430373709082264 -2.7316426293334076e-09
   239   1     0.58879326795688491       11.70747604496321 -2.7331303210169179e-09
   240   1      12.381188121387744      4.5518268185132431      5.2293551658868971
   241   1      12.043938834279158      6.3510431279689286 -2.7312532554562751e-09
   242   1      10.035131086888498      7.8672860605962018 -2.7315739387580748e-09
   243   1      11.758074187289113      8.1430373738062141      5.2293551658860897
   244   1      10.326734924786786      6.0993671165505496      5.2293551658866742
   245   1      11.479901261160531       9.941106783205095 -2.7323942310299142e-09
   246   1      9.4160517481594574      11.441521640670716 -2.7328700922940776e-09
   247   1      11.190301409730244       11.70747601932926      5.2293551658843906
   248   1      9.7321298190594483      9.6550630416647873      5.2293551658856074
   249   1      10.930438904404188      13.412264270255402 -2.7339140844200794e-09
   250   1      9.0931438867960139      13.179707508411337      5.2293551658840274
   251   1      8.6264707458569898      5.8271329916345156 -2.7311996582283441e-09
   252   1       6.607957114462125      7.2940599218962729   -2.73134985319053e-09
   253   1      8.3169148115457361      7.5883500142674434      5.2293551658864432
   254   1      6.9364679906924307      5.5351198652974185      5.2293551658867408
   255   1      8.0020267298579775       9.394385621774175 -2.7318768585051146e-09
   256   1      5.9825744608631775      10.996369055264347 -2.7323274926040452e-09
   257   1      7.6546049467769564       11.22692255601328      5.2293551658853996
   258   1      6.2997801710651338      9.0969364651808426      5.2293551658861324
   259   1      7.3402441119850472      13.107742190811521 -2.7335406330998388e-09
   260   1      5.6181033925650175      13.030628539492163      5.2293551658848285
   261   1      5.2533571797868523      5.2333493352326315 -2.7311285970924529e-09
   262   1      3.1685709045501733      6.6558642942284347 -2.7313249340391307e-09
   263   1      4.8943124988998221      6.9882087730460443      5.2293551658865844
   264   1      3.5557442704034057      4.9188245882670518      5.2293551658867994
   265   1      4.5953942435336801      8.7963530490070152 -2.7316741642780684e-09
   266   1      2.6122496871209107      10.291039074103256 -2.7318933409903053e-09
   267   1       4.322850686210411      10.640258635757823      5.2293551658855417
   268   1      2.8777119286589121      8.4538013305027171      5.2293551658861777
   269   1      4.0475346182406824      12.526318027972021  -2.732810654260797e-09
   270   1      2.0662440497675529      13.795651831274579 -2.7393766099133045e-09
   271   1      2.3541798052054284      12.069171744111943      5.2293551658847184
   272   1     0.87839308955652495      9.9411067865239691      5.2293551658855062
   273   1     0.32893076359209206      13.412264282768643       5.229355165883983
   274   1      1.7796799484867698      4.5518268156171322 -2.7311048589083321e-09
   275   1      1.4424306599714767      6.3510431239061242      5.2293551658866271
   276   1      15.913289868624013      14.999999988777358      5.2293551658835336
