(written by ASE)

180 atoms
1 atom types

0.0      14.378264682075612  xlo xhi
0.0                      30  ylo yhi
0.0      6.9724735581572146  zlo zhi

Atoms # atomic

     1   1      6.1059450244027644      18.320692434809288 -1.1446100703932007e-06
     2   1      5.6924962798718175      16.592724934393416      1.7431172383714877
     3   1      6.9948778506141664      21.833558746794569 -1.1365348217320908e-06
     4   1      6.5566104342668199      20.073530384342153      1.7431172496552931
     5   1      3.9227268450652075       16.94348094241397 -1.1463938990770723e-06
     6   1      2.7448290243212372      19.180729594785586 -1.1411711998387212e-06
     7   1      4.4060623771775811      18.733614148052375      1.7431172473908441
     8   1      2.3104044185652461      17.302872129737501      1.7431172444179621
     9   1      4.8593717776065501      20.527961290971206 -1.1383262661985045e-06
    10   1      3.6086191771592833      22.749375083803809 -1.1350888181595774e-06
    11   1      5.3011334057583381       22.27927788225356       1.743117253798788
    12   1      3.1722019206160152       20.98262230316606      1.7431172520491207
    13   1      5.7933674964811503      23.993187386876954 -1.1343474764999002e-06
    14   1      4.1350674344403622      24.451066071947992      1.7431172555179471
    15   1      12.881628617772417      16.592724938781711 -1.1511673873636383e-06
    16   1     0.65736071583528655      17.858657726351101  -1.145321628588003e-06
    17   1      13.745742775808981      20.073530386489576 -1.1398826987255286e-06
    18   1      1.0671843421600411      19.602898583799988      1.7431172486401252
    19   1       13.29507736413885      18.320692439750431      1.7431172449307515
    20   1      1.4880324733409342      21.407342879088354  -1.137079705168848e-06
    21   1     0.25373254456861483      23.566413939060244 -1.1346343832779812e-06
    22   1      1.9275342170152086      23.187522380717759      1.7431172548261828
    23   1      14.184010192179368      21.833558747108363      1.7431172530055137
    24   1      2.4023634428113279      24.963330654702929 -1.1336745415034454e-06
    25   1      9.4995367600522407       17.30287213548872 -1.1451189600670907e-06
    26   1      11.111859186944756      16.943480946467908      1.7431172431475466
    27   1      11.595194717716472      18.733614152475266 -1.1421453222967075e-06
    28   1      10.361334260988945      20.982622305230951 -1.1374875105763252e-06
    29   1      12.048504118379507      20.527961293922392      1.7431172512160875
    30   1      9.9339613644756497      19.180729597670954      1.7431172483711266
    31   1      12.490265746859107      22.279277883638933 -1.1357382542025559e-06
    32   1       11.32419977584914      24.451066073285514 -1.1340196705783514e-06
    33   1       12.98249983811893      23.993187387465174      1.7431172551938785
    34   1       10.79775151795806      22.749375085507832      1.7431172544523452
    35   1      7.8464930567427373      17.858657725146585      1.7431172442182774
    36   1      8.2563166821595146      19.602898584317277   -1.14089785295933e-06
    37   1      8.6771648135969137      21.407342880168969      1.7431172524607179
    38   1      9.1166665576380357      23.187522382112672 -1.1347129853823758e-06
    39   1      9.5914957838490889       24.96333065606321      1.7431172558651202
    40   1        7.44286488512315      23.566413939716806       1.743117254903672
    41   1     0.20585199463687132      16.189750408657481      1.7431172408616886
    42   1      7.3949843423714681      16.189750401728745 -1.1486779934185023e-06
    43   1        13.7457440536335      9.9264697694219759 -1.1719207029345752e-06
    44   1      12.881630055685431      13.407275159015352 -1.1606533485355928e-06
    45   1       13.29507896586041       11.67930803598208      1.7431172223364342
    46   1      12.464491977244055      14.999999743718416      1.7431172336275274
    47   1      11.324200851934473      5.5489340030862824  -1.177762576776412e-06
    48   1      12.982500903468685      6.0068126846294962      1.7431172120997056
    49   1      12.490266890110705      7.7207221960906365 -1.1760530523572309e-06
    50   1      10.361335429119563      9.0173776068318325 -1.1743086946838202e-06
    51   1      12.048505424255294      9.4720387735891922      1.7431172160645745
    52   1      10.797752622441758      7.2506249454388669      1.7431172128378905
    53   1      11.595196194433948      11.266385551386325 -1.1696603811505114e-06
    54   1      9.4995380251230799      12.697126659869371 -1.1666934161575069e-06
    55   1      11.111860546087781       13.05651782506399      1.7431172241171236
    56   1      9.9339625729812049      10.819269929900379      1.7431172189033104
    57   1      10.669376910102287      14.999999252156112 -1.1559126523913809e-06
    58   1      8.8486553303943154       15.00000336075963      1.7431172336263556
    59   1      9.5914968701114809      5.0366693623376344      1.7431172114340725
    60   1      9.1166676336268093      6.8124776016749538 -1.1770752249958217e-06
    61   1      6.9948789954563964      8.1664412919333227 -1.1752633036686503e-06
    62   1      8.6771659267610577      8.5926570497727095      1.7431172148207119
    63   1      7.4428659577866592      6.4335860523155404      1.7431172123842706
    64   1      8.2563178520115272      10.397101363625676 -1.1709081130556841e-06
    65   1      6.1059466235139217      11.679308031120122 -1.1672048548243073e-06
    66   1      7.8464943168578118        12.1413424228813      1.7431172230448941
    67   1      6.5566117131821775       9.926469767423745      1.7431172176167327
    68   1      7.3949864901152127      13.810250867301647 -1.1631440927116167e-06
    69   1      5.2753596361410056      14.999999739909722 -1.1559113707758294e-06
    70   1      5.6924977114348527      13.407275154648802      1.7431172288855954
    71   1      5.7933685629795892      6.0068126843398852 -1.1774425034895464e-06
    72   1       3.608620281160968      7.2506249440159021 -1.1767042098153334e-06
    73   1      5.3011345491948632      7.7207221949717821      1.7431172134830275
    74   1      4.1350685112383099      5.5489340021204381      1.7431172117738223
    75   1      4.8593730830010626      9.4720387707616602 -1.1734787108174225e-06
    76   1      2.7448302310369543      10.819269926933284 -1.1706394485049483e-06
    77   1      4.4060638528968479      11.266385546959263      1.7431172198753115
    78   1      3.1722030873998639      9.0173776048612684      1.7431172152271577
    79   1      3.9227282058083115      13.056517820983732 -1.1654241655463559e-06
    80   1       1.659522989325801      15.000003388625601 -1.1559117029736005e-06
    81   1      3.4802445689940025      14.999999246612013      1.7431172336276832
    82   1      2.3104056845084737      12.697126653912042      1.7431172228438392
    83   1      2.4023645291376337      5.0366693612826712 -1.1781069445028669e-06
    84   1     0.25373361626195895      6.4335860515911794 -1.1771534460041465e-06
    85   1       1.927535292143125       6.812477600455213      1.7431172124633814
    86   1      1.4880335848634454      8.5926570486816054 -1.1747199678076422e-06
    87   1      1.0671855098735126      10.397101362963548      1.7431172186298645
    88   1      14.184011335866769      8.1664412921006129      1.7431172142774454
    89   1     0.65736197565095078      12.141342423937871 -1.1664948977994119e-06
    90   1     0.20585415586160508      13.810250874194749      1.7431172263955395
    91   1      6.1059450244027653      18.320692434809292      3.4862356344685352
    92   1      5.6924962798718157      16.592724934393416      5.2293540174500972
    93   1      6.9948778506141664      21.833558746794569      3.4862356425437855
    94   1      6.5566104342668181      20.073530384342153      5.2293540287339022
    95   1      3.9227268450652031      16.943480942413967       3.486235632684707
    96   1      2.7448290243212363      19.180729594785578      3.4862356379074058
    97   1      4.4060623771775802      18.733614148052379      5.2293540264694522
    98   1      2.3104044185652457      17.302872129737501      5.2293540234965725
    99   1      4.8593717776065493      20.527961290971202      3.4862356407523403
   100   1      3.6086191771592828      22.749375083803809      3.4862356439897888
   101   1      5.3011334057583399       22.27927788225356      5.2293540328773931
   102   1      3.1722019206160144      20.982622303166064      5.2293540311277278
   103   1      5.7933674964811503      23.993187386876954      3.4862356447311296
   104   1      4.1350674344403631      24.451066071947992      5.2293540345965521
   105   1      12.881628617772428      16.592724938781704      3.4862356279112223
   106   1     0.65736071583528821      17.858657726351083      3.4862356337569773
   107   1       13.74574277580898      20.073530386489573      3.4862356391959062
   108   1      1.0671843421600404      19.602898583799984      5.2293540277187303
   109   1      13.295077364138852      18.320692439750431      5.2293540240093588
   110   1      1.4880324733409336      21.407342879088354      3.4862356419989018
   111   1     0.25373254456861516      23.566413939060247      3.4862356444442262
   112   1      1.9275342170152074      23.187522380717763      5.2293540339047908
   113   1      14.184010192179368      21.833558747108359      5.2293540320841201
   114   1      2.4023634428113274      24.963330654702929      3.4862356454040655
   115   1      9.4995367600522389       17.30287213548872      3.4862356339596476
   116   1      11.111859186944761      16.943480946467911      5.2293540222261523
   117   1      11.595194717716472      18.733614152475262       3.486235636933285
   118   1      10.361334260988944      20.982622305230954      3.4862356415910978
   119   1      12.048504118379505      20.527961293922392      5.2293540302946946
   120   1      9.9339613644756497       19.18072959767095      5.2293540274497339
   121   1      12.490265746859107      22.279277883638933      3.4862356433403532
   122   1      11.324199775849142      24.451066073285517      3.4862356450589367
   123   1       12.98249983811893      23.993187387465174      5.2293540342724851
   124   1       10.79775151795806      22.749375085507832      5.2293540335309538
   125   1      7.8464930567427338      17.858657725146589      5.2293540232968843
   126   1      8.2563166821595129      19.602898584317277      3.4862356381807533
   127   1      8.6771648135969102      21.407342880168965      5.2293540315393257
   128   1      9.1166665576380375      23.187522382112675      3.4862356443656228
   129   1      9.5914957838490906      24.963330656063214      5.2293540349437295
   130   1      7.4428648851231509      23.566413939716806       5.229354033982279
   131   1     0.20585199463687187      16.189750408657481      5.2293540199403186
   132   1      7.3949843423714698      16.189750401728748      3.4862356304006208
   133   1      13.745744053633498      9.9264697694219706      3.4862356071579037
   134   1      12.881630055685424       13.40727515901535       3.486235618425257
   135   1      13.295078965860409       11.67930803598208      5.2293540014150413
   136   1      12.464491977244055      14.999999743718419      5.2293540127061355
   137   1      11.324200851934473      5.5489340030862842      3.4862356013160314
   138   1      12.982500903468685      6.0068126846294962      5.2293539911783125
   139   1      12.490266890110703      7.7207221960906356      3.4862356030255555
   140   1      10.361335429119565      9.0173776068318343      3.4862356047699139
   141   1      12.048505424255294      9.4720387735891922      5.2293539951431844
   142   1      10.797752622441759      7.2506249454388678      5.2293539919164997
   143   1      11.595196194433948      11.266385551386323      3.4862356094182267
   144   1      9.4995380251230799      12.697126659869372      3.4862356123851899
   145   1       11.11186054608778       13.05651782506399      5.2293540031957315
   146   1      9.9339625729812031      10.819269929900379      5.2293539979819181
   147   1      10.669376910102288       14.99999925215611      3.4862356231659546
   148   1      8.8486553303943172      15.000003360759612       5.229354012704964
   149   1      9.5914968701114809      5.0366693623376335      5.2293539905126805
   150   1      9.1166676336268093      6.8124776016749529      3.4862356020033829
   151   1      6.9948789954563964      8.1664412919333245      3.4862356038153037
   152   1      8.6771659267610577      8.5926570497727113       5.229353993899319
   153   1      7.4428659577866574      6.4335860523155413      5.2293539914628777
   154   1      8.2563178520115255      10.397101363625678      3.4862356081704942
   155   1      6.1059466235139217      11.679308031120124      3.4862356118737541
   156   1      7.8464943168578145      12.141342422881305       5.229354002123503
   157   1      6.5566117131821766      9.9264697674237485      5.2293539966953402
   158   1      7.3949864901152083      13.810250867301646      3.4862356159345098
   159   1      5.2753596361410056      14.999999739909713      3.4862356231672362
   160   1      5.6924977114348545      13.407275154648804      5.2293540079642025
   161   1      5.7933685629795892      6.0068126843398852      3.4862356016361038
   162   1      3.6086202811609676      7.2506249440159021      3.4862356023743963
   163   1      5.3011345491948623      7.7207221949717812      5.2293539925616352
   164   1       4.135068511238309      5.5489340021204372      5.2293539908524291
   165   1      4.8593730830010617      9.4720387707616585      3.4862356055998966
   166   1      2.7448302310369539      10.819269926933281      3.4862356084391593
   167   1       4.406063852896847      11.266385546959265      5.2293539989539202
   168   1       3.172203087399863      9.0173776048612666      5.2293539943057663
   169   1      3.9227282058083173       13.05651782098373      3.4862356136544439
   170   1      1.6595229893258003      15.000003388625652      3.4862356231669041
   171   1      3.4802445689940034      14.999999246612017      5.2293540127062892
   172   1      2.3104056845084724      12.697126653912044      5.2293540019224451
   173   1      2.4023645291376345      5.0366693612826712      3.4862356009716611
   174   1     0.25373361626195945      6.4335860515911794      3.4862356019251628
   175   1      1.9275352921431248      6.8124776004552121      5.2293539915419878
   176   1      1.4880335848634449      8.5926570486816072      3.4862356043586384
   177   1      1.0671855098735128      10.397101362963548      5.2293539977084755
   178   1      14.184011335866771      8.1664412921006146      5.2293539933560531
   179   1     0.65736197565094923      12.141342423937854      3.4862356125837111
   180   1     0.20585415586160521      13.810250874194749       5.229354005474125
