(written by ASE)

160 atoms
1 atom types

0.0      12.566209407074302  xlo xhi
0.0                      30  ylo yhi
0.0      6.9724735581572146  zlo zhi

Atoms # atomic

     1   1      12.533573794250763      18.517761230156417      1.3073390180006237
     2   1      11.535601617624275      16.820201198839122      3.0504574004239648
     3   1      7.7204403759839737      17.528306367899134      1.3073390133168374
     4   1      9.1685666762762583      16.319651478792963      3.0504573933746939
     5   1      6.7325251994182516      16.159262367406441      3.0504573999833755
     6   1      10.144670685927696      17.852193043503874      1.3073390116420405
     7   1      9.6719173565195984      20.469120667418281      1.3073390212252256
     8   1      11.102440695448426      19.430404631500632      3.0504574083695055
     9   1      8.7015651259206663      18.955569248518085      3.0504574059012164
    10   1      12.075601585088735      21.013787190194083      1.3073390239423957
    11   1      11.635758851204104      23.484041364513001      1.3073390273601331
    12   1      10.632423779289802      21.997412107764639      3.0504574147977563
    13   1    0.088399690933107664      25.014391683798792      3.0504574178983397
    14   1      2.8854619727507274      16.319651478592348      1.3073390038412409
    15   1      5.2524969140882067      16.820201198854495      1.3073390108762157
    16   1      4.8193359919083418        19.4304046315441      1.3073390188211762
    17   1      6.2504690907307658      18.517761230336781      3.0504574075281998
    18   1      3.8615659824052462      17.852193043403155      3.0504574011786842
    19   1      7.2443876419574575      20.010868389741603      1.3073390215506844
    20   1      6.7715574710677009      22.506912920367334      1.3073390264674896
    21   1      8.2174442144921969      21.501185627114097      3.0504574140388274
    22   1      5.7924968815540909      21.013787190442851      3.0504574134681088
    23   1      9.2033755509020967      22.974793976851206      1.3073390266239973
    24   1      10.187184343286811      24.467039953895306      3.0504574173756578
    25   1      7.7787631329283018      23.934944849877272      3.0504574169994698
    26   1     0.44942049584305488      16.159262367243318      1.3073390104538558
    27   1      1.4373356724648476      17.528306367658185      3.0504574028664577
    28   1      2.4184604223987942       18.95556924827077       1.307339016369208
    29   1      1.9343395109986985      21.501185626781464      1.3073390245109158
    30   1      3.3888126530069367      20.469120667292422       3.050457410765063
    31   1     0.96128293843980628      20.010868389420136      3.0504574111031562
    32   1      4.3493190757850835      21.997412107841068      1.3073390252516874
    33   1      3.9040796395819655      24.467039953981942      1.3073390278203196
    34   1      5.3526541476558682      23.484041364843854      3.0504574168791674
    35   1      2.9202708473680818      22.974793976695622      3.0504574161668474
    36   1      6.3715043943863083      25.014391684250146      1.3073390283323516
    37   1     0.48845276754039624      22.506912919945425      3.0504574160256785
    38   1      1.4956584293341211      23.934944849455583       1.307339027477868
    39   1      11.535601570282576      13.179798766460026      3.0504573753255673
    40   1      10.655159567147294      14.999999985361418      1.3073389982903985
    41   1      10.632423658894025      8.0025878724592854      3.0504573615057748
    42   1      11.635758720883199      6.5159586190710099      1.3073389699978453
    43   1      11.102440609169685      10.569595342175623       3.050457367626858
    44   1      8.7015650441471415      11.044430723332194      3.0504573699975315
    45   1      10.144670621201682      12.147806924764707      1.3073389850627066
    46   1      9.6719172540329925      9.5308793108252061      1.3073389757925866
    47   1      9.1685666355219748      13.680348476704118      3.0504573823148911
    48   1      6.7325251541135458      13.840737610435413      3.0504573757440205
    49   1      8.0342404558359366      14.999999978033236      1.3073389983035666
    50   1       7.720440309836734      12.471693599957952       1.307338983402949
    51   1       10.18718421060283      5.5329600300431832      3.0504573590866602
    52   1      7.7787630017265617      6.0650551342178467      3.0504573594179738
    53   1      9.2033754233202032      7.0252060067206781      1.3073389706718976
    54   1      8.2174440985949602      8.4988143537232492      3.0504573622080207
    55   1      5.7924967711097493      8.9862127882043943      3.0504573627456462
    56   1      7.2443875427217135      9.9891315877199585      1.3073389754629166
    57   1      6.7715573462024787      7.4930870625682413      1.3073389708086396
    58   1      6.2504690119564748      11.482238747347091      3.0504573684078915
    59   1      3.8615659176953061      12.147806924706277      3.0504573746010943
    60   1      5.2524968667802865      13.179798766430084      1.3073389857815161
    61   1      4.8193359056956107      10.569595342169032      1.3073389780834712
    62   1       4.372054863641667      14.999999985298944      3.0504573878293648
    63   1      1.7511357522987832      14.999999977853468      3.0504573878502224
    64   1      2.8854619320060229      13.680348476555576      1.3073389927808812
    65   1      6.3715042602631797      4.9856083018605988      1.3073389690609789
    66   1      5.3526540173511874      6.5159586189968026      3.0504573595301734
    67   1      2.9202707197928626      7.0252060067980304      3.0504573602122331
    68   1      4.3493189554007241      8.0025878724593209      1.3073389719638029
    69   1       3.904079507005171      5.5329600300616759      1.3073389695417796
    70   1      3.3888125505493929      9.5308793108341874      3.0504573653320568
    71   1     0.96128283917777479      9.9891315877091955      3.0504573650078268
    72   1      2.4184603406478624      11.044430723275529      1.3073389804620765
    73   1      1.9343393950791234      8.4988143538039314      1.3073389726728484
    74   1      1.4373356062957425      12.471693599830729       3.050457372948125
    75   1     0.44942045059340791      13.840737610297108      1.3073389862106013
    76   1      12.533573715459164      11.482238747268667      1.3073389788741594
    77   1    0.088399556790446671      4.9856083020109541      3.0504573586089929
    78   1      1.4956582981764348      6.0650551343738393      1.3073389698844771
    79   1     0.48845264265098348       7.493087062684717      3.0504573603545411
    80   1      12.075601474601859      8.9862127882298264      1.3073389732117262
    81   1      12.533573794250758      18.517761230156413       4.793575797079229
    82   1      11.535601617624275      16.820201198839118      6.5366941795025699
    83   1      7.7204403759839728      17.528306367899134      4.7935757923954467
    84   1      9.1685666762762565      16.319651478792963       6.536694172453303
    85   1      6.7325251994182498      16.159262367406438      6.5366941790619837
    86   1        10.1446706859277      17.852193043503878      4.7935757907206495
    87   1      9.6719173565195984      20.469120667418281      4.7935758003038327
    88   1      11.102440695448427      19.430404631500629      6.5366941874481101
    89   1      8.7015651259206646      18.955569248518085      6.5366941849798232
    90   1      12.075601585088734      21.013787190194087      4.7935758030210049
    91   1      11.635758851204105      23.484041364512997      4.7935758064387404
    92   1      10.632423779289807      21.997412107764635      6.5366941938763627
    93   1    0.088399690933109953      25.014391683798792      6.5366941969769456
    94   1      2.8854619727507287      16.319651478592348      4.7935757829198495
    95   1      5.2524969140882067      16.820201198854495       4.793575789954823
    96   1      4.8193359919083409        19.4304046315441      4.7935757978997842
    97   1      6.2504690907307667      18.517761230336784      6.5366941866068062
    98   1      3.8615659824052471      17.852193043403155      6.5366941802572933
    99   1      7.2443876419574584      20.010868389741603      4.7935758006292932
   100   1      6.7715574710677009      22.506912920367334      4.7935758055460971
   101   1      8.2174442144921986      21.501185627114094      6.5366941931174329
   102   1        5.79249688155409      21.013787190442851      6.5366941925467188
   103   1      9.2033755509020949      22.974793976851203       4.793575805702603
   104   1      10.187184343286809      24.467039953895302      6.5366941964542633
   105   1      7.7787631329283045      23.934944849877272      6.5366941960780789
   106   1     0.44942049584305205      16.159262367243318      4.7935757895324649
   107   1      1.4373356724648474      17.528306367658185       6.536694181945065
   108   1      2.4184604223987956      18.955569248270766      4.7935757954478149
   109   1      1.9343395109986985      21.501185626781464      4.7935758035895244
   110   1      3.3888126530069367      20.469120667292422      6.5366941898436712
   111   1     0.96128293843980739      20.010868389420143      6.5366941901817661
   112   1      4.3493190757850835      21.997412107841068      4.7935758043302972
   113   1      3.9040796395819664      24.467039953981942      4.7935758068989287
   114   1      5.3526541476558691      23.484041364843858       6.536694195957776
   115   1      2.9202708473680832      22.974793976695622      6.5366941952454551
   116   1      6.3715043943863101      25.014391684250146      4.7935758074109582
   117   1     0.48845276754039546      22.506912919945425      6.5366941951042845
   118   1      1.4956584293341193      23.934944849455583      4.7935758065564755
   119   1      11.535601570282576      13.179798766460026      6.5366941544041737
   120   1      10.655159567147292      14.999999985361416      4.7935757773690062
   121   1      10.632423658894025      8.0025878724592836      6.5366941405843839
   122   1      11.635758720883201      6.5159586190710082      4.7935757490764521
   123   1      11.102440609169683      10.569595342175624      6.5366941467054662
   124   1      8.7015650441471433      11.044430723332191      6.5366941490761397
   125   1      10.144670621201678      12.147806924764705      4.7935757641413153
   126   1      9.6719172540329943      9.5308793108252061      4.7935757548711946
   127   1      9.1685666355219748      13.680348476704117      6.5366941613934975
   128   1      6.7325251541135485      13.840737610435408      6.5366941548226292
   129   1      8.0342404558359384      14.999999978033234      4.7935757773821743
   130   1       7.720440309836734       12.47169359995795      4.7935757624815585
   131   1       10.18718421060283       5.532960030043184      6.5366941381652675
   132   1      7.7787630017265581      6.0650551342178467      6.5366941384965793
   133   1      9.2033754233201979      7.0252060067206772      4.7935757497505058
   134   1      8.2174440985949584      8.4988143537232492      6.5366941412866275
   135   1      5.7924967711097501      8.9862127882043925      6.5366941418242535
   136   1      7.2443875427217135      9.9891315877199585      4.7935757545415241
   137   1      6.7715573462024796      7.4930870625682413      4.7935757498872489
   138   1      6.2504690119564739      11.482238747347093      6.5366941474864975
   139   1      3.8615659176953061      12.147806924706277      6.5366941536797034
   140   1      5.2524968667802874      13.179798766430082      4.7935757648601225
   141   1      4.8193359056956107      10.569595342169031      4.7935757571620794
   142   1      4.3720548636416678      14.999999985298944      6.5366941669079726
   143   1      1.7511357522987827      14.999999977853467      6.5366941669288314
   144   1      2.8854619320060229      13.680348476555576      4.7935757718594871
   145   1      6.3715042602631806      4.9856083018605988      4.7935757481395855
   146   1      5.3526540173511901      6.5159586189968026      6.5366941386087802
   147   1      2.9202707197928635      7.0252060067980286      6.5366941392908409
   148   1      4.3493189554007259      8.0025878724593227      4.7935757510424111
   149   1      3.9040795070051701      5.5329600300616768      4.7935757486203867
   150   1      3.3888125505493933      9.5308793108341892      6.5366941444106628
   151   1     0.96128283917777535      9.9891315877091955      6.5366941440864377
   152   1      2.4184603406478642      11.044430723275529      4.7935757595406852
   153   1      1.9343393950791248      8.4988143538039314      4.7935757517514546
   154   1       1.437335606295743      12.471693599830729      6.5366941520267305
   155   1     0.44942045059340707      13.840737610297102      4.7935757652892086
   156   1      12.533573715459163      11.482238747268669      4.7935757579527669
   157   1    0.088399556790446115      4.9856083020109532      6.5366941376875989
   158   1      1.4956582981764348      6.0650551343738393       4.793575748963085
   159   1     0.48845264265098187      7.4930870626847179      6.5366941394331519
   160   1      12.075601474601855      8.9862127882298246      4.7935757522903346
