(written by ASE)

100 atoms
1 atom types

0.0      7.7997161837012907  xlo xhi
0.0                      30  ylo yhi
0.0      6.9724735581572146  zlo zhi

Atoms # atomic

     1   1    0.054717618575718954      18.475271150541548      1.7431184201462055
     2   1      7.0254774060861518      16.686222126159738      3.4862368098514644
     3   1      3.1256193142339503      16.686222126159787      1.7431184203121735
     4   1      4.6728624558565786      16.156474902123776      3.4862368098167313
     5   1      5.5325972980230667      17.637411009837816      1.7431184202240795
     6   1      4.7659906153383744      20.101212728904624      1.7431184200603813
     7   1      6.3156618719127779      19.250709999212518      3.4862368096582887
     8   1      3.9545757104260306      18.475271150543158      3.4862368096855105
     9   1       7.109411268745788      20.924219196226854      1.7431184200230871
    10   1      6.3732781856533878      23.340243496910336      1.7431184199482426
    11   1     0.10486311162205574      22.547774284904261      3.4862368095042076
    12   1      5.5549203730008632      21.726677188494371      3.4862368095325489
    13   1      7.1982343057663147      24.982775113052416      3.4862368094660989
    14   1      0.7730043640055565      16.156474902130046      1.7431184202774246
    15   1      1.6327392061717465       17.63741100983674      3.4862368097633682
    16   1      2.4158037800624821      19.250709999212521      1.7431184201189791
    17   1      1.6550622811501685      21.726677188494339      1.7431184199932448
    18   1      3.2095531768951169      20.924219196226691      3.4862368095623899
    19   1     0.86613252348775371      20.101212728904933      3.4862368095996854
    20   1      4.0047212034727044       22.54777428490431      1.7431184199649046
    21   1      3.2983762139156703      24.982775113052408      1.7431184199267942
    22   1      4.8446960105530357      24.099865658244184      3.4862368094788474
    23   1      2.4734200938027495      23.340243496910361      3.4862368094875458
    24   1     0.94483791870239786      24.099865658244187      1.7431184199395411
    25   1       7.025010444308033      13.311798132299812  3.1394177858713455e-08
    26   1      6.1406689005643784       14.99901335104712      1.7431184206227255
    27   1      7.1963877695949678      5.0157538572167368   3.177997775211018e-08
    28   1      5.5533690283637629      8.2717248735263791  3.1713399937904216e-08
    29   1      7.1080049405251033      9.0741318697064628      1.7431184212228135
    30   1      6.3715062214760234      6.6582386993898171       1.743118421297785
    31   1      6.3146358003709571      10.747507628870666  3.1587494714946982e-08
    32   1      3.9537112831949011      11.522941549874778  3.1560234256895505e-08
    33   1      5.5319214157918655      12.360750046538936      1.7431184210216526
    34   1      4.7647592456916064      9.8971066941107502      1.7431184211854731
    35   1      4.6724147190180751      13.841676306640419  3.1429003529263978e-08
    36   1      2.2408108087143805       14.99901335104712  3.1083413696591992e-08
    37   1      3.1251523524558351      13.311798132299753      1.7431184209334649
    38   1      4.8428781104893108      5.8986315408551846  3.1767195332625909e-08
    39   1      2.4716481296253834       6.658238699389794  3.1758482628296728e-08
    40   1       4.003035082717175      7.4506863157050258      1.7431184212810948
    41   1      3.2965296777443203      5.0157538572167466      1.7431184213192805
    42   1      3.2081468486744349       9.074131869706628    3.16835081522769e-08
    43   1     0.86490115384098953      9.8971066941104411     3.1646167108196e-08
    44   1      2.4147777085206577      10.747507628870654      1.7431184211268003
    45   1      1.6535109365130634      8.2717248735264075      1.7431184212527038
    46   1      1.6320633239405431      12.360750046540007  3.1482367494787346e-08
    47   1     0.77255662716705131      13.841676306634144       1.743118420968307
    48   1      7.8535693750458764      11.522941549876386      1.7431184210995383
    49   1     0.94302001863866991      5.8986315408551819      1.7431184213064972
    50   1      7.9028931745678177      7.4506863157050711  3.1741790954758802e-08
    51   1    0.054717618575693995      18.475271150541595      5.2293551992248135
    52   1      7.0254774060861482      16.686222126159738  3.0772884255229612e-08
    53   1      3.1256193142339628      16.686222126159784      5.2293551993907785
    54   1       4.672862455856583      16.156474902123779  3.0738117985970082e-08
    55   1      5.5325972980230604      17.637411009837816      5.2293551993026917
    56   1      4.7659906153383744      20.101212728904628      5.2293551991389862
    57   1      6.3156618719127762      19.250709999212518  3.0579670256255366e-08
    58   1       3.954575710426032      18.475271150543161  3.0606902213631085e-08
    59   1      7.1094112687457907      20.924219196226847      5.2293551991016933
    60   1      6.3732781856533878      23.340243496910343      5.2293551990268483
    61   1     0.10486311162205623      22.547774284904261  3.0425603023682015e-08
    62   1      5.5549203730008632      21.726677188494371  3.0453941214852965e-08
    63   1      7.1982343057663174      24.982775113052416  3.0387489482588181e-08
    64   1     0.77300436400557337      16.156474902129879      5.2293551993560303
    65   1      1.6327392061717481      17.637411009836736  3.0684797772785253e-08
    66   1      2.4158037800624812      19.250709999212525      5.2293551991975873
    67   1      1.6550622811501658      21.726677188494339      5.2293551990718514
    68   1      3.2095531768951164      20.924219196226691   3.048378227416327e-08
    69   1     0.86613252348775349      20.101212728904933  3.0521072921935147e-08
    70   1      4.0047212034727062      22.547774284904307      5.2293551990435123
    71   1      3.2983762139156703      24.982775113052405      5.2293551990054032
    72   1      4.8446960105530339      24.099865658244184  3.0400234910568772e-08
    73   1      2.4734200938027446      23.340243496910361  3.0408937455189008e-08
    74   1     0.94483791870239842      24.099865658244187      5.2293551990181495
    75   1      7.0250104443080312       13.31179813229981      3.4862368104727564
    76   1      6.1406689005643784      14.999013351047122      5.2293551997013319
    77   1      7.1963877695949678      5.0157538572167368      3.4862368108585864
    78   1      5.5533690283637638      8.2717248735263773      3.4862368107920068
    79   1       7.108004940525106      9.0741318697064681      5.2293552003014216
    80   1      6.3715062214760243      6.6582386993898179      5.2293552003763955
    81   1      6.3146358003709571      10.747507628870666      3.4862368106661101
    82   1      3.9537112831949011      11.522941549874773      3.4862368106388435
    83   1      5.5319214157918628      12.360750046538934      5.2293552001002608
    84   1      4.7647592456916064      9.8971066941107466      5.2293552002640817
    85   1      4.6724147190180769      13.841676306640426      3.4862368105076147
    86   1      2.2408108087143828       14.99901335104712      3.4862368101620369
    87   1      3.1251523524558462      13.311798132299753      5.2293552000120744
    88   1      4.8428781104893091      5.8986315408551846      3.4862368108458042
    89   1      2.4716481296253829      6.6582386993897931      3.4862368108370911
    90   1      4.0030350827171741       7.450686315705024      5.2293552003597039
    91   1      3.2965296777443198      5.0157538572167484      5.2293552003978894
    92   1      3.2081468486744358      9.0741318697066262       3.486236810762116
    93   1     0.86490115384098853      9.8971066941104429      3.4862368107247788
    94   1      2.4147777085206563      10.747507628870652      5.2293552002054113
    95   1      1.6535109365130622      8.2717248735264075      5.2293552003313142
    96   1      1.6320633239405433      12.360750046540009        3.48623681056094
    97   1     0.77255662716706786      13.841676306634309      5.2293552000469177
    98   1      7.8535693750458568      11.522941549876343      5.2293552001781443
    99   1     0.94302001863866947      5.8986315408551819      5.2293552003851067
   100   1      7.9028931745678159      7.4506863157050711      3.4862368108203996
