(written by ASE)

224 atoms
1 atom types

0.0      18.030518817995052  xlo xhi
0.0                      30  ylo yhi
0.0      7.0723586277786685  zlo zhi

Atoms # atomic

     1   1      14.458257678903868      16.566299127174315  7.9684726433409528e-08
     2   1      15.189518724987678      19.979825059463909  8.4617306971547473e-08
     3   1      14.795582077248385      18.241886208607351      1.7680897428671301
     4   1      15.556935975623679      21.811760534088496      1.7680897417874195
     5   1      12.411976158517882      14.999999998515451  8.2194389604091136e-08
     6   1      10.882505904867859      16.965653053249781  8.4545506849679557e-08
     7   1      12.577214351892311       16.84879956686714      1.7680897424392585
     8   1      10.647010606313314      14.999999999200213      1.7680897418794315
     9   1      12.996231580082414       18.60570600352748  8.4658955964507787e-08
    10   1      11.688359840949266      20.772106900562608  8.4887050765839367e-08
    11   1      13.424520753655775      20.387968109299383       1.768089741691516
    12   1      11.282538197325744      18.943373243104698      1.7680897415855739
    13   1      13.824132827687803      22.193925705978462  8.4865422798028274e-08
    14   1      12.459938738670989      24.328541171906107  8.4882950060270018e-08
    15   1      14.192807723907215      23.950408260131525      1.7680897418129178
    16   1      12.087956262494858      22.593082981610603      1.7680897417830124
    17   1      8.8340987812615879      14.999999999818192   8.463834871397573e-08
    18   1      7.6503371676166534      17.771258121980495  8.4868448603506303e-08
    19   1      9.3276663546045704      17.280597670614082      1.7680897417181616
    20   1      7.2294603094849403      16.163250881372022      1.7680897410960725
    21   1      9.6348559738972011      19.246598603748428  8.4791472183047711e-08
    22   1      8.2571421072381153      21.442849721128155  8.4831610581361728e-08
    23   1      9.9672955757253696      21.123653053765707      1.7680897417548509
    24   1      7.9312210074143019      19.590449828253519      1.7680897417092272
    25   1      10.348869230358325      22.950335780868002  8.4872664101996856e-08
    26   1      8.9547802944048147      24.988121596272507  8.4893503186237891e-08
    27   1      10.682244464243052      24.693615136941176      1.7680897418367121
    28   1      8.5883187808294696      23.295639446858143      1.7680897418264827
    29   1      3.3967167495442889      14.999999999365274   8.652261711061893e-08
    30   1       5.442998269377032      16.566299126174485  8.8577015805413071e-08
    31   1      3.9809721707644834      18.605706003936419  8.4804714741502402e-08
    32   1      5.7803226681565025      18.241886208835584      1.7680897407137064
    33   1      3.5619549437718785       16.84879956591945      1.7680897409800924
    34   1      6.1742593158761103      19.979825059134608  8.4903200817928644e-08
    35   1      4.8088734186478739      22.193925705803792  8.4833109549670941e-08
    36   1      6.5416765666238836      21.811760533492201      1.7680897417768371
    37   1      4.4092613444109494       20.38796810933238       1.768089741781079
    38   1      6.8844790015777599       23.62789515801316  8.4876688176339759e-08
    39   1      5.1775483152513031      23.950408259847961      1.7680897418248191
    40   1      5.1111732154542926      14.999999995644332      1.7680897353391523
    41   1      17.849358190165439      15.000000000020682   8.458311100530403e-08
    42   1      1.6317511972689136      14.999999999432491      1.7680897413066057
    43   1      1.8672464954768446      16.965653053617402  8.4844027866431094e-08
    44   1     0.61959656478411429      19.246598604269074  8.4775190341965893e-08
    45   1      2.2672787876794658       18.94337324391179       1.768089741780279
    46   1     0.31240694494678739      17.280597670868548      1.7680897415345187
    47   1      2.6731004317137033      20.772106900850662  8.4760093162826367e-08
    48   1      1.3336098213947611      22.950335781485755  8.4870519990625978e-08
    49   1      3.0726968535227819      22.593082981905404      1.7680897418250328
    50   1     0.95203616661543611      21.123653054294856      1.7680897417767103
    51   1       3.444679330041073      24.328541172067386  8.4880149340947173e-08
    52   1      1.6669850554605519      24.693615137427905      1.7680897418343842
    53   1      16.244719719374206      16.163250881809695      1.7680897422948982
    54   1      16.665596576329932      17.771258121933737   8.452468642094145e-08
    55   1      16.946480416298574      19.590449828751698      1.7680897417020536
    56   1      17.272401516148452      21.442849721862991  8.4838734196520403e-08
    57   1      15.899738410417402      23.627895158693789  8.4868430273562288e-08
    58   1      17.603578189794636      23.295639447581173      1.7680897418161838
    59   1      17.970039703478204      24.988121596884813  8.4894229769489082e-08
    60   1      14.126432624371359      14.999999991723895      1.7680897495033125
    61   1      17.272401535484857      8.5571502771683896    8.45328141766633e-08
    62   1      17.603578211922812      6.7043605511994526      1.7680897414643211
    63   1      16.665596587098975      12.228741877602156  8.4363751484133642e-08
    64   1      16.946480431394683      10.409550170832413      1.7680897414662697
    65   1       16.24471971946241      13.836749122809504      1.7680897421760708
    66   1      15.899738432935127       6.372104840031704  8.4522644604834756e-08
    67   1      13.824132848946395      7.8060742934990976   8.454798756663614e-08
    68   1      15.556935996108557       8.188239465225255      1.7680897414784165
    69   1      14.192807746782504      6.0495917390163845      1.7680897414682246
    70   1      15.189518741943251      10.020174940556174  8.4378106973445273e-08
    71   1      12.996231593578491      11.394293994740806  8.4467534947439918e-08
    72   1      14.795582089886544      11.758113791006522      1.7680897427047948
    73   1       13.42452077152655      9.6120318899257722      1.7680897414299501
    74   1      14.458257684721778      13.433700880682391  7.9603108607992953e-08
    75   1      12.577214365115339      13.151200437498664      1.7680897423263366
    76   1      12.459938762132753       5.671458827013498  8.4533517710524339e-08
    77   1      10.348869252267598      7.0496642170891581  8.4534826466366851e-08
    78   1      12.087956284300404       7.406917017323174      1.7680897414549321
    79   1      10.682244487918059      5.3063848613877589      1.7680897414802832
    80   1      11.688359859147587       9.227893098286728  8.4605211112186926e-08
    81   1      9.6348559875618793      10.753401394653023  8.4564780851409632e-08
    82   1      11.282538208217375      11.056626752865823      1.7680897413675016
    83   1      9.9672955941038861      8.8763469442614493      1.7680897414600525
    84   1      10.882505908978924      13.034346942647577  8.4420815252958173e-08
    85   1      9.3276663667314068      12.719402326823209      1.7680897415729955
    86   1      8.9547803179613741      5.0118784014577349  8.4533401898602489e-08
    87   1      6.8844790236844657      6.3721048395695083  8.4533414142117901e-08
    88   1       8.588318802758403      6.7043605503691106      1.7680897414819177
    89   1      8.2571421265041902      8.5571502764614156   8.453104167370267e-08
    90   1      6.1742593332657467      10.020174940546111  8.4664728471344245e-08
    91   1      7.9312210225101074      10.409550170444952      1.7680897414763586
    92   1      6.5416765872344289      8.1882394649622352      1.7680897414689285
    93   1      7.6503371780875842      12.228741877750418  8.4712507844602781e-08
    94   1      5.4429982764700036      13.433700879827359  8.8497353388683618e-08
    95   1      7.2294603116097083      13.836749122416377      1.7680897409774452
    96   1      5.7803226811760187      11.758113791471867      1.7680897405491582
    97   1      3.4446793529592967       5.671458827669551  8.4523168856596077e-08
    98   1      5.1775483374809887      6.0495917391799816      1.7680897414773691
    99   1      4.8088734400936239      7.8060742938404335  8.4512136585110243e-08
   100   1      2.6731004504029205      9.2278930989706076  8.4471603322081942e-08
   101   1      4.4092613628803168      9.6120318903825375      1.7680897415152879
   102   1      3.0726968753745938      7.4069170181308319      1.7680897414896417
   103   1      3.9809721849780972      11.394293995437339  8.4610134160030488e-08
   104   1      1.8672465002603962       13.03434694311705  8.4715132007948415e-08
   105   1      3.5619549552717276      13.151200436687066      1.7680897408643734
   106   1      2.2672787997954766       11.05662675393013      1.7680897415568071
   107   1      17.970039727256268      5.0118784022520373  8.4524398039396929e-08
   108   1      1.6669850790177512      5.3063848622677572      1.7680897414678827
   109   1      1.3336098433526316      7.0496642180681919  8.4523822149808562e-08
   110   1     0.95203618516638711      8.8763469450326138      1.7680897414749388
   111   1     0.61959657851141881      10.753401395281411   8.454264039146919e-08
   112   1     0.31240695817675018      12.719402327110547      1.7680897413873933
   113   1      14.458257678903834      16.566299127174368      3.5361793935740651
   114   1      15.189518724987682      19.979825059463927      3.5361793985066328
   115   1       14.79558207724838      18.241886208607351      5.3042690567564774
   116   1      15.556935975623686      21.811760534088489      5.3042690556767642
   117   1      12.411976158517868      14.999999998515447      3.5361793960837131
   118   1      10.882505904867864      16.965653053249795      3.5361793984348315
   119   1      12.577214351892311      16.848799566867136      5.3042690563286019
   120   1      10.647010606313307      14.999999999200224      5.3042690557687635
   121   1      12.996231580082414      18.605706003527494      3.5361793985482937
   122   1      11.688359840949268      20.772106900562598      3.5361793987763863
   123   1      13.424520753655774      20.387968109299397      5.3042690555808543
   124   1      11.282538197325753      18.943373243104688      5.3042690554749177
   125   1      13.824132827687801      22.193925705978444      3.5361793987547561
   126   1      12.459938738670981       24.32854117190611       3.536179398772286
   127   1      14.192807723907205      23.950408260131521      5.3042690557022398
   128   1      12.087956262494847      22.593082981610596      5.3042690556723393
   129   1      8.8340987812615879      14.999999999818185      3.5361793985276715
   130   1      7.6503371676166569      17.771258121980487      3.5361793987577865
   131   1      9.3276663546045757      17.280597670614082       5.304269055607497
   132   1      7.2294603094849466      16.163250881372019      5.3042690549854097
   133   1      9.6348559738972011      19.246598603748428      3.5361793986808112
   134   1       8.257142107238117      21.442849721128159      3.5361793987209547
   135   1      9.9672955757253714      21.123653053765707      5.3042690556441849
   136   1      7.9312210074142948      19.590449828253526      5.3042690555985619
   137   1      10.348869230358316      22.950335780867999      3.5361793987619965
   138   1      8.9547802944048271      24.988121596272496      3.5361793987828354
   139   1      10.682244464243063      24.693615136941183       5.304269055726059
   140   1       8.588318780829459      23.295639446858146      5.3042690557158156
   141   1      3.3967167495442943      14.999999999365269      3.5361794004119584
   142   1       5.442998269377024      16.566299126174478      3.5361794024663502
   143   1      3.9809721707644865      18.605706003936433      3.5361793986940526
   144   1      5.7803226681565061      18.241886208835577      5.3042690546030364
   145   1      3.5619549437718789      16.848799565919453      5.3042690548694296
   146   1      6.1742593158761165      19.979825059134615      3.5361793987925396
   147   1      4.8088734186478739      22.193925705803782      3.5361793987224437
   148   1      6.5416765666238801      21.811760533492208      5.3042690556661682
   149   1      4.4092613444109476      20.387968109332387      5.3042690556704146
   150   1      6.8844790015777608       23.62789515801316      3.5361793987660155
   151   1      5.1775483152513155      23.950408259847976      5.3042690557141556
   152   1      5.1111732154542882      14.999999995644325       5.304269049228493
   153   1      17.849358190165461       15.00000000002068      3.5361793984724383
   154   1      1.6317511972689089      14.999999999432488      5.3042690551959444
   155   1      1.8672464954768624      16.965653053617412      3.5361793987333616
   156   1     0.61959656478411362      19.246598604269085        3.53617939866453
   157   1      2.2672787876794613      18.943373243911779      5.3042690556696197
   158   1     0.31240694494678684      17.280597670868552      5.3042690554238341
   159   1       2.673100431713705      20.772106900850662      3.5361793986494283
   160   1      1.3336098213947534      22.950335781485741      3.5361793987598427
   161   1      3.0726968535227899      22.593082981905411       5.304269055714359
   162   1     0.95203616661543866      21.123653054294873      5.3042690556660439
   163   1      3.4446793300410787      24.328541172067375      3.5361793987694856
   164   1      1.6669850554605556      24.693615137427901       5.304269055723716
   165   1      16.244719719374231      16.163250881809681       5.304269056184185
   166   1      16.665596576329925      17.771258121933784       3.536179398414022
   167   1      16.946480416298574      19.590449828751712      5.3042690555913952
   168   1      17.272401516148445      21.442849721862995      3.5361793987280654
   169   1      15.899738410417402      23.627895158693779      3.5361793987577794
   170   1      17.603578189794636      23.295639447581163      5.3042690557055261
   171   1      17.970039703478175      24.988121596884813      3.5361793987835735
   172   1      14.126432624371372      14.999999991723906      5.3042690633926064
   173   1       17.27240153548485      8.5571502771683843      3.5361793984221475
   174   1      17.603578211922795      6.7043605511994464      5.3042690553536582
   175   1       16.66559658709896      12.228741877602138      3.5361793982530791
   176   1      16.946480431394704      10.409550170832409       5.304269055355606
   177   1       16.24471971946241      13.836749122809501      5.3042690560653831
   178   1       15.89973843293512      6.3721048400317057      3.5361793984119738
   179   1      13.824132848946393      7.8060742934991012       3.536179398437326
   180   1      15.556935996108566      8.1882394652252497      5.3042690553677456
   181   1      14.192807746782524       6.049591739016388      5.3042690553575511
   182   1      15.189518741943253      10.020174940556176      3.5361793982674476
   183   1      12.996231593578491      11.394293994740798      3.5361793983568792
   184   1      14.795582089886553      11.758113791006526      5.3042690565941548
   185   1       13.42452077152655      9.6120318899257722      5.3042690553192955
   186   1      14.458257684721749      13.433700880682334      3.5361793934924433
   187   1      12.577214365115337      13.151200437498664      5.3042690562156727
   188   1      12.459938762132738      5.6714588270134998      3.5361793984228647
   189   1      10.348869252267603      7.0496642170891564      3.5361793984241561
   190   1      12.087956284300397      7.4069170173231749       5.304269055344272
   191   1      10.682244487918053      5.3063848613877562      5.3042690553696206
   192   1      11.688359859147582      9.2278930982867262      3.5361793984945495
   193   1      9.6348559875618722      10.753401394653025       3.536179398454117
   194   1      11.282538208217364      11.056626752865826      5.3042690552568388
   195   1      9.9672955941038897      8.8763469442614511      5.3042690553493843
   196   1      10.882505908978924      13.034346942647572      3.5361793983101504
   197   1       9.327666366731405      12.719402326823216       5.304269055462342
   198   1       8.954780317961383      5.0118784014577349      3.5361793984227305
   199   1      6.8844790236844711      6.3721048395695066      3.5361793984227488
   200   1      8.5883188027583959      6.7043605503691177      5.3042690553712513
   201   1      8.2571421265041938      8.5571502764614138       3.536179398420372
   202   1      6.1742593332657512      10.020174940546104      3.5361793985540633
   203   1      7.9312210225101101      10.409550170444957      5.3042690553656877
   204   1      6.5416765872344351      8.1882394649622423       5.304269055358267
   205   1      7.6503371780875931      12.228741877750428      3.5361793986018402
   206   1      5.4429982764700151      13.433700879827377      3.5361794023866757
   207   1      7.2294603116097171      13.836749122416377       5.304269054866805
   208   1      5.7803226811760267      11.758113791471869      5.3042690544384765
   209   1      3.4446793529592927      5.6714588276695501      3.5361793984125089
   210   1      5.1775483374810012      6.0495917391799852      5.3042690553666949
   211   1      4.8088734400936239      7.8060742938404335      3.5361793984014716
   212   1      2.6731004504029188      9.2278930989706076      3.5361793983609364
   213   1      4.4092613628803203      9.6120318903825481      5.3042690554046183
   214   1      3.0726968753745987      7.4069170181308275      5.3042690553789766
   215   1      3.9809721849781003       11.39429399543735      3.5361793984994696
   216   1      1.8672465002604099      13.034346943117042       3.536179398604463
   217   1      3.5619549552717245      13.151200436687063      5.3042690547537097
   218   1      2.2672787997954638       11.05662675393012      5.3042690554461362
   219   1      17.970039727256264        5.01187840225204      3.5361793984137173
   220   1      1.6669850790177467       5.306384862267751      5.3042690553572198
   221   1      1.3336098433526329       7.049664218068199      3.5361793984131507
   222   1     0.95203618516638877      8.8763469450326067      5.3042690553642711
   223   1     0.61959657851141503      10.753401395281426      3.5361793984319596
   224   1     0.31240695817675596      12.719402327110538      5.3042690552767118
