(written by ASE)

276 atoms
1 atom types

0.0      21.506762889276093  xlo xhi
0.0                      30  ylo yhi
0.0      7.0723586277786685  zlo zhi

Atoms # atomic

     1   1       9.152848769021265      16.822611711012168      1.7680896541689262
     2   1      9.8501965118176358        20.2989986106505      1.7680896541660747
     3   1      9.4916260616038617      18.544625745013661      3.5361793111122246
     4   1      10.504607258097471      23.894825189765847      1.7680896541641016
     5   1      10.199906064100929      22.100296426192198      3.5361793111094943
     6   1      5.7309537759317806      16.985060882422893      1.7680896541686806
     7   1      7.3983898461872979      16.897091442981054      3.5361793111135214
     8   1      7.7117381028682193      18.796362611082582      1.7680896541669708
     9   1      6.3683887173634623      20.921585507632727      1.7680896541652542
    10   1      8.0856304913303561       20.62560288625102      3.5361793111102169
    11   1      6.0488900884637324      19.016378778185285      3.5361793111113258
    12   1      8.4435863289566768      22.447032625533353      1.7680896541645095
    13   1      7.0251269558048595      24.532324615798334      1.7680896541638484
    14   1       8.776182635731459       24.19988263021413      3.5361793111086954
    15   1      6.7041234656177986      22.778122546130547      3.5361793111089028
    16   1      2.4781720188804517      17.773145500501588      1.7680896541679612
    17   1      4.1718568563381391      17.290170218354742      3.5361793111129294
    18   1      2.0854444289345042      16.164395533412435      3.5361793111138122
    19   1       4.418966831284159      19.279365117409725      1.7680896541665978
    20   1       2.953337115246021       21.45223280192246      1.7680896541650764
    21   1      4.6713578867215881      21.184242281863355      3.5361793111097697
    22   1      2.7045696041256395      19.590700318163503      3.5361793111112134
    23   1      4.9716088263862153      23.065296912485419      1.7680896541640703
    24   1      3.4828555183717884      25.092553075453072      1.7680896541636146
    25   1      5.2560745277751746      24.826126535035055      3.5361793111083539
    26   1      3.2347407058158266      23.315473219090457       3.536179311108687
    27   1     0.29392479933044946      16.562807805345582      1.7680896541674447
    28   1      20.245007506242143      18.544625745013597      1.7680896541675044
    29   1     0.58285682714291254      18.221448971048066      3.5361793111132562
    30   1        19.9062302136639      16.822611711006182      3.5361793111140627
    31   1     0.91027632012903847       19.94162479660034       1.768089654166453
    32   1      20.953287508738999      22.100296426190994      1.7680896541648474
    33   1      1.2051246843954291      21.743919647066551      3.5361793111097453
    34   1      20.603577956455862       20.29899861064942      3.5361793111107271
    35   1      1.4738408923043589      23.591076999331761      1.7680896541640216
    36   1      1.7651379914964791      25.308809437120235      3.5361793111082869
    37   1      21.257988702735304      23.894825189764855      3.5361793111087776
    38   1      18.151771290823863       16.89709144298067      1.7680896541688309
    39   1      16.802271533102861      19.016378778184826      1.7680896541667279
    40   1      18.465119547504496      18.796362611083538      3.5361793111115825
    41   1       16.48433522057131      16.985060882422239      3.5361793111132909
    42   1      18.839011935968532       20.62560288624967      1.7680896541656046
    43   1      17.457504910256066      22.778122546129708      1.7680896541642643
    44   1       19.19696777359491      22.447032625532142      3.5361793111091897
    45   1      17.121770162001827      20.921585507631573      3.5361793111099269
    46   1      19.529564080369735        24.1998826302131      1.7680896541640421
    47   1      17.778508400443528      24.532324615797506      3.5361793111085427
    48   1      12.838825873577365      16.164395533415604      1.7680896541687805
    49   1      14.925238300972259      17.290170218353868      1.7680896541683917
    50   1      13.457951048763592      19.590700318163858      1.7680896541665601
    51   1      15.172348275922106      19.279365117409835       3.536179311111225
    52   1      13.231553463517798      17.773145500500966      3.5361793111127455
    53   1      15.424739331359758      21.184242281863181      1.7680896541651412
    54   1      13.988122150454343      23.315473219090507      1.7680896541640483
    55   1      15.724990271024668      23.065296912485035      3.5361793111087607
    56   1      13.706718559884102      21.452232801922726      3.5361793111097519
    57   1      16.009455972414088      24.826126535034586      1.7680896541637297
    58   1      14.236236963010732      25.092553075453033      3.5361793111082971
    59   1      11.047306243970027      16.562807805351959      3.5361793111150468
    60   1        11.3362382717805      18.221448971047909      1.7680896541678057
    61   1      11.663657764766878      19.941624796601332      3.5361793111112356
    62   1      11.958506129033502      21.743919647067386      1.7680896541650792
    63   1      12.227222336942805      23.591076999332309       3.536179311108699
    64   1      12.518519436135389      25.308809437120608      1.7680896541636226
    65   1      18.042527147266384      15.000000000001489      3.5361793111160105
    66   1   -0.021384865778669025      15.000000000008113       3.536179311119255
    67   1      10.731996578859333      14.999999999994518      1.7680896541699711
    68   1      19.779467118657376      15.000000000002556      1.7680896541700664
    69   1      5.5171982089275549      15.000000000002137      3.5361793111158364
    70   1      7.2891457026286153      15.000000000002323      1.7680896541711111
    71   1      9.0260856740196207      15.000000000001215      3.5361793111162538
    72   1      3.6976216772208601      15.000000000002274      1.7680896541711788
    73   1      14.451003121858824      15.000000000002304      3.5361793111158599
    74   1      21.257988702747056      6.1051748102385481      3.5361793111226714
    75   1      20.603577956464786      9.7010013893542286      3.5361793111208155
    76   1      20.953287508749742      7.8997035738124417       1.768089654177351
    77   1      19.906230213663704      13.177388288993132      3.5361793111182713
    78   1      20.245007506248754      11.455374254990968      1.7680896541747146
    79   1      17.778508400454946      5.4676753842058829      3.5361793111229352
    80   1      19.529564080381299       5.800117369790402      1.7680896541780982
    81   1      19.196967773605635      7.5529673744712031      3.5361793111223072
    82   1      17.121770162010481      9.0784144923711594      3.5361793111216091
    83   1      18.839011935977506      9.3743971137532931      1.7680896541766906
    84   1      17.457504910266834      7.2218774538735815      1.7680896541778974
    85   1      18.465119547512526      11.203637388920724      3.5361793111199376
    86   1      16.484335220573026      13.014939117579969      3.5361793111183339
    87   1      18.151771290828577      13.102908557022445      1.7680896541734452
    88   1      16.802271533108151      10.983621221818268      1.7680896541756181
    89   1      14.236236963021776       4.907446924550416       3.536179311123163
    90   1      16.009455972425318      5.1738734649687084      1.7680896541784059
    91   1      15.724990271035393      6.9347030875181703      3.5361793111227318
    92   1      13.706718559893663      8.5477671980810115      3.5361793111218085
    93   1      15.424739331368675      8.8157577181401887      1.7680896541770836
    94   1      13.988122150465092      6.6845267809128712      1.7680896541781179
    95   1      15.172348275928449      10.720634882594103      3.5361793111203594
    96   1      13.231553463523992      12.226854499503117      3.5361793111189739
    97   1      14.925238300980423      12.709829781648867      1.7680896541740612
    98   1      13.457951048771152      10.409299681840574      1.7680896541757147
    99   1      12.838825873574866      13.835604466593766      1.7680896541734179
   100   1      1.2051246844056802       8.256080352937067       3.536179311121797
   101   1     0.58285682714872811       11.77855102895737      3.5361793111194615
   102   1      12.518519436146294      4.6911905628831834      1.7680896541785056
   103   1      12.227222336953682      6.4089230006715594      3.5361793111227939
   104   1       10.19990606411179       7.899703573813091      3.5361793111220305
   105   1      11.958506129043752      8.2560803529371043      1.7680896541771465
   106   1      10.504607258108663      6.1051748102388901      1.7680896541780569
   107   1      11.663657764775779      10.058375203404101      3.5361793111204358
   108   1      9.4916260616113313      11.455374254990749      3.5361793111194491
   109   1      11.336238271787487      11.778551028956759      1.7680896541740343
   110   1      9.8501965118272032      9.7010013893549338      1.7680896541761877
   111   1      11.047306243972127      13.437192194661526      3.5361793111182127
   112   1      9.1528487690308307      13.177388288999127      1.7680896541731548
   113   1      8.7761826357431669      5.8001173697912076      3.5361793111227802
   114   1      6.7041234656289852      7.2218774538746677      3.5361793111225781
   115   1      8.4435863289678341      7.5529673744722441      1.7680896541776678
   116   1      7.0251269558171376      5.4676753842068884      1.7680896541782718
   117   1      8.0856304913398809      9.3743971137545525      3.5361793111213302
   118   1       6.048890088471369      10.983621221819032      3.5361793111202293
   119   1      7.7117381028731327      11.203637388919729      1.7680896541753606
   120   1      6.3683887173729312      9.0784144923726675      1.7680896541769642
   121   1      7.3983898461896054      13.102908557022857      3.5361793111181266
   122   1      5.7309537759366389      13.014939117580715      1.7680896541737345
   123   1      5.2560745277878205      5.1738734649696978      3.5361793111230853
   124   1      3.2347407058274706       6.684526780913628      3.5361793111227771
   125   1      4.9716088263976479      6.9347030875191669      1.7680896541780613
   126   1       3.482855518384512      4.9074469245511505      1.7680896541784819
   127   1       4.671357886730835      8.8157577181410396       3.536179311121745
   128   1      2.7045696041330474      10.409299681840819      3.5361793111203652
   129   1      4.4189668312906756       10.72063488259445      1.7680896541757372
   130   1      2.9533371152556755      8.5477671980815177      1.7680896541771309
   131   1      4.1718568563389766      12.709829781650107      3.5361793111186608
   132   1      2.0854444289411935      13.835604466590826      3.5361793111184658
   133   1      2.4781720188850804      12.226854499504311      1.7680896541741993
   134   1     0.91027632013739934      10.058375203403614      1.7680896541756324
   135   1     0.29392479933563298      13.437192194655397      1.7680896541706306
   136   1       1.765137991509131      4.6911905628835342      3.5361793111231177
   137   1      1.4738408923160595      6.4089230006718507      1.7680896541780915
   138   1      16.270579653565335      15.000000000001451       1.768089654171169
   139   1      9.1528487690212543      16.822611711012144      5.3042689680582749
   140   1      9.8501965118176358      20.298998610650496      5.3042689680554087
   141   1      9.4916260616038777      18.544625745013644 -2.7771203786031021e-09
   142   1      10.504607258097478       23.89482518976585      5.3042689680534636
   143   1      10.199906064100924      22.100296426192209 -2.7798374729164547e-09
   144   1      5.7309537759317859      16.985060882422893      5.3042689680580111
   145   1      7.3983898461872863      16.897091442981054 -2.7758017299647248e-09
   146   1      7.7117381028682122      18.796362611082593      5.3042689680563102
   147   1       6.368388717363465      20.921585507632727      5.3042689680545951
   148   1      8.0856304913303507       20.62560288625102 -2.7791224956249745e-09
   149   1      6.0488900884637253      19.016378778185285 -2.7779976579158643e-09
   150   1      8.4435863289566679      22.447032625533371      5.3042689680538428
   151   1      7.0251269558048444      24.532324615798341      5.3042689680531669
   152   1      8.7761826357314341      24.199882630214134 -2.7806476488073656e-09
   153   1      6.7041234656177942      22.778122546130547 -2.7804332162774382e-09
   154   1      2.4781720188804495       17.77314550050162      5.3042689680573076
   155   1      4.1718568563381391      17.290170218354746 -2.7764090412455237e-09
   156   1      2.0854444289345162      16.164395533412421 -2.7755661479223843e-09
   157   1      4.4189668312841697      19.279365117409718      5.3042689680559301
   158   1      2.9533371152460206      21.452232801922445      5.3042689680544015
   159   1      4.6713578867215881      21.184242281863369 -2.7795588294100951e-09
   160   1      2.7045696041256453       19.59070031816352 -2.7781059188497293e-09
   161   1      4.9716088263862153      23.065296912485426      5.3042689680534014
   162   1      3.4828555183717906      25.092553075453072       5.304268968052944
   163   1      5.2560745277751728      24.826126535035076 -2.7809789381863187e-09
   164   1      3.2347407058158351      23.315473219090457 -2.7806576395312347e-09
   165   1     0.29392479933041415      16.562807805345692      5.3042689680567863
   166   1      20.245007506242125      18.544625745013619      5.3042689680568369
   167   1      0.5828568271429182      18.221448971048076 -2.7760108585301041e-09
   168   1      19.906230213663935      16.822611711006189 -2.7752617386962402e-09
   169   1     0.91027632012903326      19.941624796600287      5.3042689680557791
   170   1      20.953287508739002      22.100296426190962      5.3042689680541795
   171   1      1.2051246843954326       21.74391964706653 -2.7796036996312645e-09
   172   1      20.603577956455865      20.298998610649427 -2.7785914356153702e-09
   173   1      1.4738408923043476      23.591076999331761      5.3042689680533606
   174   1      1.7651379914964809      25.308809437120235 -2.7810425751473367e-09
   175   1      21.257988702735283      23.894825189764859 -2.7805423967563613e-09
   176   1      18.151771290823884      16.897091442980674      5.3042689680582269
   177   1      16.802271533102839      19.016378778184805      5.3042689680560819
   178   1      18.465119547504507      18.796362611083556 -2.7777552889966767e-09
   179   1      16.484335220571189      16.985060882422246 -2.7760625430964792e-09
   180   1      18.839011935968529      20.625602886249673      5.3042689680549335
   181   1      17.457504910256059      22.778122546129712      5.3042689680535995
   182   1      19.196967773594885      22.447032625532124 -2.7801528725584898e-09
   183   1      17.121770162001816      20.921585507631573 -2.7794097060230159e-09
   184   1      19.529564080369749      24.199882630213089      5.3042689680533766
   185   1      17.778508400443506      24.532324615797521  -2.780809384026502e-09
   186   1      12.838825873577354      16.164395533415597      5.3042689680580546
   187   1      14.925238300972252      17.290170218353843      5.3042689680576149
   188   1      13.457951048763599      19.590700318163865       5.304268968055907
   189   1      15.172348275922099      19.279365117409853 -2.7781094460771173e-09
   190   1      13.231553463517871      17.773145500500902 -2.7765934089825012e-09
   191   1       15.42473933135976      21.184242281863192      5.3042689680544646
   192   1      13.988122150454345       23.31547321909051       5.304268968053357
   193   1      15.724990271024662      23.065296912485042 -2.7805710405956202e-09
   194   1      13.706718559884111      21.452232801922747 -2.7795841728674859e-09
   195   1      16.009455972414084      24.826126535034604      5.3042689680530302
   196   1      14.236236963010757      25.092553075453019 -2.7810274464522359e-09
   197   1      11.047306243970089      16.562807805351859 -2.7743054780980974e-09
   198   1      11.336238271780497      18.221448971047913      5.3042689680572153
   199   1      11.663657764766892      19.941624796601356 -2.7780953220221468e-09
   200   1      11.958506129033507      21.743919647067383      5.3042689680543909
   201   1      12.227222336942825      23.591076999332266 -2.7806294713210642e-09
   202   1      12.518519436135385      25.308809437120598      5.3042689680530009
   203   1      18.042527147266362      15.000000000001497 -2.7733053964184788e-09
   204   1   -0.021384865778657811      15.000000000008097 -2.7701765919807447e-09
   205   1      10.731996578859324      14.999999999994502      5.3042689680592296
   206   1      19.779467118657365      15.000000000002554      5.3042689680594215
   207   1      5.5171982089275415      15.000000000002133 -2.7734748518952067e-09
   208   1       7.289145702628602      15.000000000002323      5.3042689680604553
   209   1      9.0260856740196385      15.000000000001217 -2.7730784008772437e-09
   210   1      3.6976216772209063      15.000000000002304       5.304268968060498
   211   1      14.451003121858772      15.000000000002322 -2.7734791609847434e-09
   212   1       21.25798870274706      6.1051748102385464 -2.7666479811298305e-09
   213   1      20.603577956464786      9.7010013893542268 -2.7685115253211881e-09
   214   1      20.953287508749749      7.8997035738124408       5.304268968066677
   215   1      19.906230213663708      13.177388288993129 -2.7710464580154587e-09
   216   1      20.245007506248729      11.455374254990948      5.3042689680640445
   217   1       17.77850840045496      5.4676753842058794  -2.766399178336828e-09
   218   1      19.529564080381299      5.8001173697903994      5.3042689680674249
   219   1      19.196967773605653      7.5529673744712102 -2.7670352308838628e-09
   220   1      17.121770162010513      9.0784144923711487 -2.7677299692488935e-09
   221   1      18.839011935977521      9.3743971137532913      5.3042689680660091
   222   1      17.457504910266817      7.2218774538735753      5.3042689680672401
   223   1      18.465119547512529      11.203637388920717 -2.7693857794408242e-09
   224   1      16.484335220573001      13.014939117579964  -2.771005406954632e-09
   225   1      18.151771290828584      13.102908557022442      5.3042689680628028
   226   1      16.802271533108154      10.983621221818266      5.3042689680649566
   227   1      14.236236963021751      4.9074469245504142  -2.766172307639827e-09
   228   1      16.009455972425314      5.1738734649686986      5.3042689680677562
   229   1      15.724990271035388       6.934703087518165 -2.7666008837273641e-09
   230   1      13.706718559893648      8.5477671980809955 -2.7675363343721348e-09
   231   1      15.424739331368679       8.815757718140194       5.304268968066431
   232   1      13.988122150465111      6.6845267809128703      5.3042689680674586
   233   1      15.172348275928439      10.720634882594103 -2.7689798447384717e-09
   234   1      13.231553463524007      12.226854499503142 -2.7703504164202302e-09
   235   1      14.925238300980419      12.709829781648875      5.3042689680633766
   236   1      13.457951048771147       10.40929968184059       5.304268968065065
   237   1      12.838825873574857      13.835604466593763      5.3042689680627122
   238   1      1.2051246844056789      8.2560803529370688 -2.7675413654972736e-09
   239   1     0.58285682714873155      11.778551028957377 -2.7698123765606399e-09
   240   1       12.51851943614629      4.6911905628831851      5.3042689680678148
   241   1      12.227222336953661      6.4089230006715416 -2.7665533334666522e-09
   242   1      10.199906064111799      7.8997035738130839 -2.7673034439469462e-09
   243   1       11.95850612904375      8.2560803529371025      5.3042689680664701
   244   1      10.504607258108653      6.1051748102388785      5.3042689680673609
   245   1      11.663657764775778      10.058375203404076 -2.7688960988778933e-09
   246   1      9.4916260616113384       11.45537425499076 -2.7698844924615885e-09
   247   1      11.336238271787478      11.778551028956763      5.3042689680634103
   248   1      9.8501965118272068      9.7010013893549303      5.3042689680655251
   249   1      11.047306243972159      13.437192194661604 -2.7711098506498003e-09
   250   1      9.1528487690308182      13.177388288999127      5.3042689680624955
   251   1      8.7761826357431918      5.8001173697912112 -2.7665432303620238e-09
   252   1      6.7041234656289905      7.2218774538746704 -2.7667567266161962e-09
   253   1      8.4435863289678323      7.5529673744722468      5.3042689680670012
   254   1      7.0251269558171465      5.4676753842068866      5.3042689680676238
   255   1      8.0856304913398898      9.3743971137545632 -2.7680063324463679e-09
   256   1      6.0488900884713752      10.983621221819034 -2.7691016180797755e-09
   257   1      7.7117381028731344       11.20363738891974      5.3042689680646919
   258   1      6.3683887173729321      9.0784144923726657      5.3042689680663022
   259   1      7.3983898461896072       13.10290855702285 -2.7711889644410911e-09
   260   1      5.7309537759366638      13.014939117580722      5.3042689680630684
   261   1      5.2560745277878107      5.1738734649696969 -2.7662581780325076e-09
   262   1       3.234740705827464      6.6845267809136271 -2.7665689823179936e-09
   263   1      4.9716088263976523       6.934703087519174         5.3042689680674
   264   1      3.4828555183845036      4.9074469245511469      5.3042689680678023
   265   1      4.6713578867308261      8.8157577181410396  -2.767588962433143e-09
   266   1      2.7045696041330456      10.409299681840821 -2.7689564649653641e-09
   267   1        4.41896683129068      10.720634882594446      5.3042689680650739
   268   1      2.9533371152556684       8.547767198081516      5.3042689680664568
   269   1      4.1718568563389837       12.70982978165009 -2.7706942406501325e-09
   270   1      2.0854444289412055      13.835604466590828 -2.7709276509414462e-09
   271   1      2.4781720188850627       12.22685449950426      5.3042689680635364
   272   1     0.91027632013739279      10.058375203403637      5.3042689680649691
   273   1     0.29392479933558963      13.437192194655276      5.3042689680599544
   274   1      1.7651379915091407      4.6911905628835324 -2.7661930612655602e-09
   275   1      1.4738408923160506       6.408923000671833      5.3042689680674266
   276   1      16.270579653565338      15.000000000001455      5.3042689680605042
