(written by ASE)

288 atoms
1 atom types

0.0      22.645532498833678  xlo xhi
0.0                      30  ylo yhi
0.0      7.0723586277786685  zlo zhi

Atoms # atomic

     1   1      14.100746083366479      19.998642374160848     0.43753518379096595
     2   1      12.941733980645465      18.577808352359352      2.2056248199424595
     3   1      9.1718539186113492      19.034267198297734     0.43753516777716989
     4   1      10.526893562772292      17.859767904419595      2.2056247875168915
     5   1      8.0581770341974117      17.629215998372846      2.2056248075596945
     6   1      11.596522595154894      19.512993828861354     0.43753517772755529
     7   1      11.382252534483488      22.120775982929853     0.43753519592911871
     8   1       12.73570954867195       21.09173030829486      2.2056248513469732
     9   1      10.276547309234562      20.567418722905114      2.2056248392087743
    10   1      13.875104957289821      22.529745956555796     0.43753520209725122
    11   1      13.604697655188138      25.034264085870937     0.43753521188193989
    12   1      12.489799186315448      23.664806384477892      2.2056248645639149
    13   1       4.163574733862335      18.824936256773949      0.4375351679709919
    14   1      5.5463086902115437      17.582910304905564      2.2056248113176959
    15   1      3.0058410184131379      17.496782045599037      2.2056248387015174
    16   1      6.6823414599468975       18.91186249655351     0.43753516656516811
    17   1      6.4365617563327335      21.528272346027123     0.43753519097965549
    18   1      7.8041279431974635       20.27976800758158      2.2056248348249912
    19   1      5.3017925611493748      20.166017438822749      2.2056248390917288
    20   1      8.9251996992329783      21.695710116940464     0.43753518864321439
    21   1      8.6602088406210473      24.254773225264447     0.43753520152288106
    22   1      10.026214414673914       23.21754711585919      2.2056248578919138
    23   1      7.5613183616673538      22.913809189297101      2.2056248547533825
    24   1      11.100213085782991      24.653935838781361     0.43753520770244664
    25   1      21.849659826546944      17.859767898271844     0.43753512827447966
    26   1      1.6189677176153916      18.577808375217753     0.43753516244229707
    27   1       1.412943300629367      21.091730300202997     0.43753519481169956
    28   1      2.7779798304449961      19.998642373147785       2.205624840891681
    29   1     0.27375635799481751      19.512993821689818      2.2056248351604326
    30   1      3.9292478877791557      21.383402863912885      0.4375351950253854
    31   1      3.6700325654565238      23.956488423055923     0.43753520921331113
    32   1      5.0803406892930347       22.76108692490212      2.2056248582927585
    33   1      2.5523387075648669      22.529745955552475      2.2056248591570413
    34   1      6.1911372198299244      24.140896293758228     0.43753520566966242
    35   1      4.7866589394886647      25.228783724653631      2.2056248679354109
    36   1      16.869074941185357      17.582910305955266      0.4375351543313209
    37   1      19.380943278838934      17.629215998236017     0.43753515085110323
    38   1      19.126894193444812      20.279768008258884     0.43753517801140773
    39   1      20.494620162315691      19.034267199471483      2.2056248252889703
    40   1      18.005107710621392      18.911862497831564      2.2056248235206373
    41   1      21.599313554830015      20.567418724135411     0.43753518256733065
    42   1      21.348980663936469      23.217547114975158     0.43753520121579359
    43   1    0.059486285213695117      22.120775982649665      2.2056248530128082
    44   1      20.247965948491956      21.695710116113958      2.2056248457764394
    45   1      1.1670329375167123      23.664806383433213     0.43753520782307626
    46   1      2.2819314060116782      25.034264083967596      2.2056248689523916
    47   1      22.422979335549002      24.653935837404781      2.2056248648458787
    48   1      14.328607255860888      17.496782056581601     0.43753517918542179
    49   1      15.486340980816189      18.824936257014738      2.2056248250500201
    50   1      16.624558810197012      20.166017440095089     0.43753518208116576
    51   1      16.403106938136755      22.761086926658237     0.43753520131769597
    52   1      17.759328006115286      21.528272347005384      2.2056248479739926
    53   1      15.252014136070226      21.383402866441564      2.2056248517998123
    54   1      18.884084611488042      22.913809189729282     0.43753519795057649
    55   1      19.982975090650552      24.254773225048186      2.2056248586551113
    56   1      17.513903469366635      24.140896295077503      2.2056248626352537
    57   1       14.99279881509238      23.956488424559712      2.2056248660664917
    58   1      16.109425188998451      25.228783726112056     0.43753521095345754
    59   1      22.177990423392682       14.99999999030149     0.43753511804474576
    60   1      20.757655794193926      16.311351106317669      2.2056247919020469
    61   1      21.599313067614723      9.4325812574350216     0.43753505782719126
    62   1      21.849659531581555      12.140232069383066     0.43753506196686004
    63   1      19.380943020601638      12.370783988243895     0.43753508913167272
    64   1      20.757655657906202      13.688648890370786      2.2056247616909466
    65   1      20.494619782991204      10.965732780303515      2.2056247353961758
    66   1      19.558434150042675      14.999999995156148     0.43753512134073586
    67   1      16.995074106484356      14.999999981090284     0.43753511986202764
    68   1      18.232375497910994      16.300177713183608      2.2056247941252165
    69   1      18.232375369758422      13.699822263836271      2.2056247604344597
    70   1      15.707598889479696      16.270872947299456      2.2056247858658025
    71   1      21.348980059909692      6.7824528715908965     0.43753503880819122
    72   1      18.884084015040767      7.0861907889147648     0.43753504148209843
    73   1      20.247965397013107      8.3042898640941694       2.205624707050875
    74   1      19.982974470186395      5.7452267574489984      2.2056246943006439
    75   1      19.126893722754154      9.7202319722398443     0.43753506116629415
    76   1      16.624558359158623       9.833982527924114     0.43753505778309065
    77   1      18.005107347427636      11.088137479647136      2.2056247300706064
    78   1      17.759327466149344      8.4717276247069151      2.2056247052676556
    79   1      16.869074692125576      12.417089661960176     0.43753508696321164
    80   1      14.328607044320011      12.503217921214437     0.43753510231418929
    81   1      15.707598737349011      13.729127021773966      2.2056247493579972
    82   1      15.486340639723936      11.175063704726536      2.2056247234255504
    83   1      14.424658052451983      14.999999958379389     0.43753517662725061
    84   1      11.820325429612845      16.849051372007207     0.43753521707667642
    85   1      13.194191556522632      16.167922208192287      2.2056247180117015
    86   1      13.194191446681087       13.83207780310623      2.2056246754849491
    87   1      16.109424552410637      4.7712162436376069     0.43753502769539837
    88   1      17.513902850055668      5.8591036711678059      2.2056246901669687
    89   1       16.40310635142156      7.2389130403911928     0.43753503753185574
    90   1      13.875104379582545      7.4702540195485794     0.43753503592201448
    91   1      15.252013611945848      8.6165971027591954      2.2056247020048625
    92   1      14.992798197013744      6.0435115481348705      2.2056246866149594
    93   1      14.100745646824317      10.001357595360151     0.43753505447181956
    94   1      11.596522211949537      10.487006154343925      0.4375350650543271
    95   1      12.941733640416258       11.42219159118428      2.2056247192863245
    96   1      12.735709041861025      8.9082696865865802      2.2056247046806527
    97   1      11.820325203233386      13.150948532491325     0.43753515628118628
    98   1      9.4348894187333379      13.688648887122829     0.43753510468573487
    99   1      10.855224174031179      14.999999990844719      2.2056247750133453
   100   1      10.526893296260074      12.140232075059282      2.2056247211869739
   101   1      9.4348895345230694      16.311351103133497      0.4375351348114293
   102   1      6.9096092524435573      16.300177711823604     0.43753513732104676
   103   1      8.2356679007800366      14.999999996424693      2.2056247778923654
   104   1      13.604697021809066      4.9657358946725143     0.43753502665138688
   105   1      11.100212461650992      5.3460641507733619     0.43753503084243034
   106   1       12.48979857552033      6.3351936024652398      2.2056246883199235
   107   1       11.38225197168472       7.879224001991247      0.4375350411209844
   108   1       8.925199147581921      8.3042898642871759     0.43753504997027781
   109   1      10.276546814409844      9.4325812556205637      2.2056247146399226
   110   1      10.026213810561472      6.7824528717135477      2.2056246955615988
   111   1      9.1718535279249966       10.96573277875425     0.43753507804043207
   112   1      6.6823410993868491       11.08813747825654     0.43753507305093464
   113   1      8.0581767665811679      12.370783988200857      2.2056247458928797
   114   1      7.8041274742894897      9.7202319712098966      2.2056247179731243
   115   1      6.9096091166969469      13.699822262407624     0.43753510362453535
   116   1      4.3848324983682758      13.729127017931363     0.43753509142074248
   117   1      5.6723078572379473      14.999999979072248      2.2056247767193642
   118   1      5.5463084444312249      12.417089660870658      2.2056247438652163
   119   1      4.3848326297929674      16.270872943358228       0.437535127991246
   120   1      1.8714253308723607      16.167922182536522     0.43753505227311756
   121   1      3.1018918029159077      14.999999981644015      2.2056248398952127
   122   1      8.6602082215519207      5.7452267569833912     0.43753503713854019
   123   1      6.1911366007261774      5.8591036697338437     0.43753503298719293
   124   1      7.5613177661988766       7.086190787994183       2.205624698196019
   125   1      6.4365612172788556      8.4717276235204935     0.43753504812749244
   126   1      3.9292473615421835       8.616597100293566     0.43753504498228085
   127   1      5.3017921095118306      9.8339825266057641      2.2056247146026058
   128   1      5.0803401015346266      7.2389130386337026      2.2056246942789328
   129   1      4.1635743879228109      11.175063704480094     0.43753506615660825
   130   1      1.6189674044059301      11.422191613215071     0.43753506160911515
   131   1        3.00584078341473      12.503217910064899      2.2056247614688109
   132   1      2.7779794009744498      10.001357594558591       2.205624711304627
   133   1      1.8714251744179862      13.832077780268307     0.43753501004935491
   134   1     0.49755914665770801      16.849051378403804      2.2056248818497171
   135   1     0.49755898655253317      13.150948539129228      2.2056248203671434
   136   1      4.7866583027340033      4.7712162423103672      2.2056246844371863
   137   1      3.6700319476186154      6.0435115467910023     0.43753502953206275
   138   1      1.1670323252191623      6.3351936018299524     0.43753503141192762
   139   1      2.5523381304234833      7.4702540187176369      2.2056246927559831
   140   1      2.2819307717257078       4.965735893086574      2.2056246835321551
   141   1      1.4129427911272396      8.9082696789530225     0.43753504789788983
   142   1     0.27375595049855445      10.487006147717924      2.2056247222114034
   143   1    0.059485722045542096      7.8792240022750963      2.2056246980368424
   144   1      22.422978710341194      5.3460641500259145      2.2056246878817785
   145   1      14.100746083366493      19.998642374160784      3.9737144976803087
   146   1      12.941733980645461      18.577808352359348      5.7418041338314794
   147   1      9.1718539186104628      19.034267198298764      3.9737144816665406
   148   1      10.526893562772285      17.859767904419567      5.7418041014034307
   149   1      8.0581770341973797      17.629215998372793       5.741804121448788
   150   1      11.596522595154905      19.512993828860928      3.9737144916168869
   151   1       11.38225253448346      22.120775982929818       3.973714509818461
   152   1      12.735709548671954      21.091730308294867      5.7418041652362239
   153   1      10.276547309234564      20.567418722905117      5.7418041530979425
   154   1      13.875104957289834      22.529745956555814      3.9737145159865901
   155   1       13.60469765518814      25.034264085870941      3.9737145257712712
   156   1      12.489799186315437      23.664806384477899      5.7418041784532239
   157   1      4.1635747338622764      18.824936256773963      3.9737144818602554
   158   1      5.5463086902114851      17.582910304905425      5.7418041252070324
   159   1      3.0058410184132822      17.496782045599193      5.7418041525908565
   160   1      6.6823414599466311      18.911862496553653       3.973714480454571
   161   1      6.4365617563327637      21.528272346027062      3.9737145048690148
   162   1      7.8041279431974697      20.279768007581598      5.7418041487146709
   163   1      5.3017925611493473      20.166017438822696       5.741804152981139
   164   1      8.9251996992328486      21.695710116940646      3.9737145025325531
   165   1      8.6602088406210243      24.254773225264483      3.9737145154121847
   166   1        10.0262144146739      23.217547115859215      5.7418041717812365
   167   1      7.5613183616673521      22.913809189297133       5.741804168642771
   168   1      11.100213085782975      24.653935838781372      3.9737145215917744
   169   1      21.849659826546965      17.859767898271887       3.973714442163113
   170   1      1.6189677176153801      18.577808375217771      3.9737144763315535
   171   1      1.4129433006293801      21.091730300202986      3.9737145087010135
   172   1      2.7779798304449925       19.99864237314781      5.7418041547810432
   173   1     0.27375635799480669      19.512993821689911      5.7418041490497833
   174   1      3.9292478877791788      21.383402863912856      3.9737145089147186
   175   1      3.6700325654565162       23.95648842305593      3.9737145231026494
   176   1      5.0803406892930294      22.761086924902123      5.7418041721820767
   177   1      2.5523387075648634      22.529745955552457      5.7418041730463569
   178   1       6.191137219829927        24.1408962937582      3.9737145195589862
   179   1      4.7866589394886772      25.228783724653621      5.7418041818247358
   180   1      16.869074941185609      17.582910305955757      3.9737144682206549
   181   1      19.380943278839059      17.629215998236159      3.9737144647403686
   182   1      19.126894193444794      20.279768008258799      3.9737144919008238
   183   1      20.494620162315915      19.034267199471213      5.7418041391783925
   184   1      18.005107710621456      18.911862497831535      5.7418041374102176
   185   1      21.599313554830008       20.56741872413539      3.9737144964566151
   186   1      21.348980663936466      23.217547114975169      3.9737145151051259
   187   1    0.059486285213705539      22.120775982649668      5.7418041669021207
   188   1      20.247965948492002      21.695710116113897      5.7418041596657385
   189   1      1.1670329375167066      23.664806383433231      3.9737145217124095
   190   1      2.2819314060116791      25.034264083967589      5.7418041828417383
   191   1      22.422979335549005      24.653935837404781      5.7418041787352285
   192   1      14.328607255860332      17.496782056581015      3.9737144930747648
   193   1      15.486340980816202      18.824936257014745       5.741804138939079
   194   1      16.624558810197112      20.166017440095271      3.9737144959705177
   195   1      16.403106938136755      22.761086926658265      3.9737145152070239
   196   1      17.759328006115286      21.528272347005405      5.7418041618633957
   197   1      15.252014136070217      21.383402866441592      5.7418041656891434
   198   1      18.884084611488014      22.913809189729246      3.9737145118399297
   199   1      19.982975090650548      24.254773225048165      5.7418041725444251
   200   1      17.513903469366639      24.140896295077514      5.7418041765245924
   201   1       14.99279881509238      23.956488424559712      5.7418041799558228
   202   1      16.109425188998458       25.22878372611207      3.9737145248427841
   203   1      22.177990423392696       14.99999999030149      3.9737144319348783
   204   1      20.757655794193774      16.311351106317787      5.7418041057913065
   205   1      21.599313067614698      9.4325812574350429      3.9737143717164884
   206   1      21.849659531581583      12.140232069383018      3.9737143758554643
   207   1      19.380943020601777       12.37078398824374      3.9737144030209497
   208   1      20.757655657906049      13.688648890370676      5.7418040755802133
   209   1      20.494619782991421      10.965732780303785      5.7418040492855908
   210   1      19.558434150042537      14.999999995156134      3.9737144352300309
   211   1      16.995074106483447       14.99999998109028      3.9737144337513599
   212   1      18.232375497910979      16.300177713183619      5.7418041080142368
   213   1      18.232375369758397      13.699822263836264      5.7418040743234835
   214   1      15.707598889479698      16.270872947299459      5.7418040997538515
   215   1      21.348980059909707       6.782452871590932      3.9737143526975292
   216   1      18.884084015040752      7.0861907889148474      3.9737143553714516
   217   1      20.247965397013132       8.304289864094212       5.741804020940199
   218   1      19.982974470186406      5.7452267574490037      5.7418040081899111
   219   1      19.126893722754115      9.7202319722399206      3.9737143750557173
   220   1      16.624558359158716      9.8339825279239168      3.9737143716724406
   221   1      18.005107347427696      11.088137479647168      5.7418040439601716
   222   1       17.75932746614933      8.4717276247068991       5.741804019157084
   223   1        16.8690746921258      12.417089661959704      3.9737144008525438
   224   1      14.328607044319451      12.503217921215038      3.9737144162035301
   225   1         15.707598737349      13.729127021773955      5.7418040632460681
   226   1      15.486340639723949      11.175063704726542      5.7418040373145933
   227   1      14.424658052446222      14.999999958379364      3.9737144905165818
   228   1      11.820325429615448      16.849051372002489      3.9737145309659976
   229   1      13.194191556522615      16.167922208192298      5.7418040319048487
   230   1      13.194191446681067      13.832077803106216      5.7418039893781891
   231   1      16.109424552410623        4.77121624363759      3.9737143415847194
   232   1      17.513902850055665      5.8591036711677962      5.7418040040562923
   233   1      16.403106351421574      7.2389130403911741       3.973714351421187
   234   1      13.875104379582554      7.4702540195485794      3.9737143498113463
   235   1      15.252013611945848      8.6165971027591866       5.741804015894199
   236   1      14.992798197013753      6.0435115481348642      5.7418040005042945
   237   1      14.100745646824327      10.001357595360222      3.9737143683611618
   238   1      11.596522211949559      10.487006154344355      3.9737143789436562
   239   1      12.941733640416263      11.422191591184285      5.7418040331753346
   240   1      12.735709041861023      8.9082696865865749      5.7418040185698986
   241   1      11.820325203236058      13.150948532496178       3.973714470170516
   242   1      9.4348894187339916      13.688648887123293      3.9737144185750464
   243   1       10.85522417403118      14.999999990844714      5.7418040889058757
   244   1      10.526893296260068      12.140232075059304      5.7418040350734225
   245   1      9.4348895345237214      16.311351103133042      3.9737144487007363
   246   1      6.9096092524436363      16.300177711823586      3.9737144512102898
   247   1      8.2356679007800739      14.999999996424686      5.7418040917815407
   248   1      13.604697021809066       4.965735894672509      3.9737143405407189
   249   1      11.100212461650978      5.3460641507733682      3.9737143447317589
   250   1      12.489798575520332      6.3351936024652291      5.7418040022092338
   251   1      11.382251971684685      7.8792240019912798      3.9737143550103156
   252   1      8.9251991475817878       8.304289864286968      3.9737143638596115
   253   1      10.276546814409855      9.4325812556205566      5.7418040285290859
   254   1      10.026213810561476      6.7824528717135424      5.7418040094509362
   255   1      9.1718535279240836      10.965732778753173      3.9737143919297981
   256   1      6.6823410993865737      11.088137478256414      3.9737143869403315
   257   1      8.0581767665811359      12.370783988200907      5.7418040597819573
   258   1      7.8041274742894977      9.7202319712098859      5.7418040318628085
   259   1      6.9096091166970233      13.699822262407659       3.973714417513786
   260   1      4.3848324983682936      13.729127017931351      3.9737144053097566
   261   1      5.6723078572381773      14.999999979072257      5.7418040906086736
   262   1      5.5463084444311646      12.417089660870786      5.7418040577545604
   263   1      4.3848326297929869      16.270872943358235      3.9737144418802468
   264   1      1.8714253308723692      16.167922182536518       3.973714366163406
   265   1      3.1018918029173617      14.999999981644022       5.741804153784531
   266   1      8.6602082215518941      5.7452267569833557      3.9737143510278643
   267   1      6.1911366007261854      5.8591036697338925       3.973714346876525
   268   1      7.5613177661988784      7.0861907879941617      5.7418040120854243
   269   1      6.4365612172788857      8.4717276235205645      3.9737143620168514
   270   1      3.9292473615422057      8.6165971002935748      3.9737143588716162
   271   1      5.3017921095118039      9.8339825266058156      5.7418040284920133
   272   1      5.0803401015346212      7.2389130386337062      5.7418040081682591
   273   1      4.1635743879227469      11.175063704480067      3.9737143800458696
   274   1      1.6189674044059255      11.422191613215066      3.9737143754983686
   275   1      3.0058407834148735      12.503217910064755      5.7418040753581563
   276   1      2.7779794009744427      10.001357594558568      5.7418040251939786
   277   1      1.8714251744179971      13.832077780268307      3.9737143239396775
   278   1     0.49755914665705403       16.84905137840499      5.7418041957390509
   279   1     0.49755898655185765      13.150948539127995      5.7418041342564772
   280   1      4.7866583027340042       4.771216242310369      5.7418039983264979
   281   1      3.6700319476186101      6.0435115467910139      3.9737143434213964
   282   1      1.1670323252191703      6.3351936018299622      3.9737143453012527
   283   1      2.5523381304234825      7.4702540187176369      5.7418040066453147
   284   1      2.2819307717257113      4.9657358930865767       5.741803997421485
   285   1      1.4129427911272403      8.9082696789530313      3.9737143617871982
   286   1      0.2737559504985515      10.487006147717818      5.7418040361007447
   287   1    0.059485722045546516      7.8792240022750875      5.7418040119261819
   288   1      22.422978710341205      5.3460641500259136      5.7418040017710945
