(written by ASE)

100 atoms
1 atom types

0.0      7.9114520242947819  xlo xhi
0.0                      30  ylo yhi
0.0      7.0723586277786685  zlo zhi

Atoms # atomic

     1   1    0.027690905950105819      18.489983002130533      1.7680897548962911
     2   1      7.1292827561456154      16.722421377384585      3.5361793942625384
     3   1      3.1735567442094057      16.722421377175866      1.7680897373155322
     4   1       4.735312297975546      16.143126146972335       3.536179395673245
     5   1      5.5859223642250324      17.621755595617163      1.7680897467967471
     6   1      4.8272278228494621      20.121474939364461       1.768089765127647
     7   1      6.3852359370988365      19.276814530791949      3.5361794166488552
     8   1      3.9834169181778121      18.489983001931154      3.5361794118427539
     9   1      7.2183382652605683      20.958155661069327      1.7680897703780865
    10   1      6.4750884984048493      23.440601201651994      1.7680897798928326
    11   1     0.15287332382478622      22.614988107016949      3.5361794342366428
    12   1      5.6625101251296535      21.776726269052908      3.5361794309952259
    13   1      7.2778028118945786      24.972993591676328      3.5361794391370966
    14   1     0.77958628580088263      16.143126145797979      1.7680897387356673
    15   1      1.6301963522835627      17.621755595578698      3.5361794037490544
    16   1      2.4295099249373999      19.276814530671519      1.7680897597064495
    17   1      1.7067841130172634      21.776726268922381      1.7680897740552166
    18   1      3.2626122530833639      20.958155661124778      3.5361794273287015
    19   1      0.8715018107631799       20.12147493918588      3.5361794220766405
    20   1      4.1085993359335937      22.614988107156176      1.7680897772903925
    21   1      3.3220767996819895      24.972993591804325       1.768089782198305
    22   1      4.9031561522229303      24.258435097869658      3.5361794380857479
    23   1      2.5193624862368624      23.440601201696378      3.5361794368396064
    24   1     0.94743014010623527      24.258435097736182      1.7680897811510834
    25   1      7.1292651349408613      13.275902181759687 -1.0206004872807674e-08
    26   1       6.264472553792956       14.99916668340961      1.7680896924965457
    27   1      7.2777859995712513       5.025293328609389   -6.98753850014657e-08
    28   1      5.6625094265501303      8.2215611242487991 -5.7436739519242876e-08
    29   1      7.2183436859853716      9.0401485140873969      1.7680896049427739
    30   1      6.4750813462968866      6.5576910546519303      1.7680895905990046
    31   1      6.3852482757034918      10.721499352934458  -3.714851801820012e-08
    32   1      3.9834257499120258       11.50833411509304 -3.1079761629723856e-08
    33   1      5.5859177669956015      12.376574782295403      1.7680896361278864
    34   1      4.8272465160888096      9.8768298415949918      1.7680896123055103
    35   1       4.735284574085453      13.855199212276412 -1.1355583405985756e-08
    36   1      2.3087465415542652      14.999166683196227  3.5555260713693351e-08
    37   1      3.1735391229802716      13.275902181505478      1.7680896467412193
    38   1      4.9031470765225942      5.7398457812128196 -6.8328397460867793e-08
    39   1      2.5193553341688166      6.5576910546836169  -6.633352810081881e-08
    40   1      4.1085970643485386      7.3832962288971444      1.7680895946202253
    41   1      3.3220599874867314      5.0252933287195747      1.7680895870644251
    42   1      3.2626176738287485      9.0401485140879618  -5.200001608764428e-08
    43   1     0.87152050388740543      9.8768298414687781 -4.4641660593670862e-08
    44   1      2.4295222634718336      10.721499352768536      1.7680896198039608
    45   1      1.7067834143847391      8.2215611241489963      1.7680895995185195
    46   1      1.6301917548633398      12.376574781914186 -2.0813532621725161e-08
    47   1     0.77955856208220586      13.855199213218077      1.7680896455865951
    48   1      7.9391517619478993      11.508334114788848      1.7680896258640491
    49   1     0.94742106435626983      5.7398457810734591      1.7680895886240848
    50   1      8.0643230764645288      7.3832962287688773 -6.2316500574170244e-08
    51   1    0.027690905950085252      18.489983002130554      5.3042690687856577
    52   1      7.1292827561456757      16.722421377384361   8.037320981394725e-08
    53   1      3.1735567442094332      16.722421377175806      5.3042690512048907
    54   1       4.735312297975578      16.143126146972222  8.1783935726725008e-08
    55   1       5.585922364225012      17.621755595617159      5.3042690606861091
    56   1      4.8272278228494603      20.121474939364472      5.3042690790169953
    57   1      6.3852359370988436      19.276814530791942  1.0275950961244155e-07
    58   1      3.9834169181777805      18.489983001931169  9.7953408865598045e-08
    59   1      7.2183382652605719      20.958155661069313      5.3042690842674238
    60   1      6.4750884984048565      23.440601201651972      5.3042690937821666
    61   1     0.15287332382478638      22.614988107016945  1.2034731882238355e-07
    62   1      5.6625101251296526      21.776726269052912  1.1710589082833304e-07
    63   1      7.2778028118945794      24.972993591676328  1.2524774118281843e-07
    64   1     0.77958628580089984       16.14312614579784       5.304269052624881
    65   1      1.6301963522835126      17.621755595578666  8.9859752973798428e-08
    66   1      2.4295099249373986      19.276814530671523      5.3042690735958002
    67   1       1.706784113017263      21.776726268922378      5.3042690879445464
    68   1      3.2626122530833599      20.958155661124781  1.1343936654211598e-07
    69   1     0.87150181076317823      20.121474939185887  1.0818730471638474e-07
    70   1      4.1085993359335875      22.614988107156194      5.3042690911797292
    71   1      3.3220767996819749       24.97299359180434      5.3042690960876495
    72   1      4.9031561522229365      24.258435097869658  1.2419639921288903e-07
    73   1      2.5193624862368651      23.440601201696378  1.2295028287383452e-07
    74   1     0.94743014010624393      24.258435097736161      5.3042690950404188
    75   1      7.1292651349408001      13.275902181759486      3.5361793036833253
    76   1      6.2644725537929222      14.999166683409609       5.304269006385713
    77   1      7.2777859995712628       5.025293328609389      3.5361792440139475
    78   1       5.662509426550133      8.2215611242488027      3.5361792564525922
    79   1      7.2183436859853689      9.0401485140873969      5.3042689188321113
    80   1      6.4750813462968813       6.557691054651924      5.3042689044883362
    81   1       6.385248275703491      10.721499352934437      3.5361792767408256
    82   1      3.9834257499120618      11.508334115093062      3.5361792828095826
    83   1      5.5859177669955828      12.376574782295423       5.304268950017236
    84   1      4.8272465160888105      9.8768298415949953      5.3042689261948555
    85   1      4.7352845740854193      13.855199212276304      3.5361793025337089
    86   1      2.3087465415543664      14.999166683196231      3.5361793494445446
    87   1      3.1735391229803072       13.27590218150555      5.3042689606305746
    88   1      4.9031470765225986      5.7398457812128116      3.5361792455609313
    89   1      2.5193553341688144      6.5576910546836125      3.5361792475558058
    90   1      4.1085970643485412      7.3832962288971427      5.3042689085095498
    91   1      3.3220599874867345      5.0252933287195765      5.3042689009537618
    92   1      3.2626176738287476      9.0401485140879689      3.5361792618893224
    93   1     0.87152050388740154      9.8768298414687816      3.5361792692476843
    94   1      2.4295222634718403      10.721499352768539      5.3042689336933044
    95   1      1.7067834143847378      8.2215611241489928      5.3042689134078476
    96   1      1.6301917548633789      12.376574781914151      3.5361792930757829
    97   1     0.77955856208222529      13.855199213218203      5.3042689594758219
    98   1      7.9391517619478753      11.508334114788818      5.3042689397534177
    99   1     0.94742106435626916      5.7398457810734591      5.3042689025134271
   100   1      8.0643230764645271      7.3832962287688755      3.5361792515728352
