(written by ASE)

240 atoms
1 atom types

0.0      19.039428735234662  xlo xhi
0.0                      30  ylo yhi
0.0      7.0723586277786685  zlo zhi

Atoms # atomic

     1   1      6.0989435246147385      17.157684973518958      1.3260672457200751
     2   1      5.3063160623662844      14.999999999999885       3.094156902665345
     3   1      6.8429749560384661      18.740376004145599      3.0941569026648161
     4   1      1.6759768815677833      14.999999999999922      1.3260672457198568
     5   1      3.8729964887967565      16.167565153452912      1.3260672457199039
     6   1       2.826317876791685      18.422722071598539      1.3260672457200722
     7   1      4.4902279722164042      17.749774108421825        3.09415690266475
     8   1      2.1797962820698222      16.618477270760607      3.0941569026646363
     9   1      5.1679399355305478      19.475971794420818      1.3260672457200682
    10   1      4.2465683100731022      21.854749867590105      1.3260672457200606
    11   1      5.8906146333297995      21.142606218121706      3.0941569026647389
    12   1      3.5300241875945084      20.142189350670282      3.0941569026647286
    13   1      6.6014041615288876      22.828536455931037      1.3260672457200591
    14   1       5.633753106827851      25.121594719502827      1.3260672457200768
    15   1      4.9384781045461716      23.550799082155478      3.0941569026647322
    16   1      17.331303321354049      16.318351499054078      1.3260672457198655
    17   1      18.986325979919126      14.999999999999959      3.0941569026645257
    18   1      16.511797941669407      14.999999999999941      3.0941569026647344
    19   1     0.56580503397558835      17.215441675733047      1.3260672457201566
    20   1      18.681677269028906      19.685173585675397      1.3260672457200908
    21   1      1.2299218212520577      19.019543616714895      3.0941569026646709
    22   1      18.020496932379597      17.906589272095967      3.0941569026647144
    23   1      1.9179278708743459      20.814248370140149      1.3260672457200693
    24   1      0.9858659764364256      23.222285106230348       1.326067245720058
    25   1      2.6285343257006728      22.552641689177619      3.0941569026647322
    26   1     0.31787788610093626      21.456869085920115      3.0941569026647122
    27   1      3.2982802061532714      24.255122784257562      1.3260672457200675
    28   1      1.6553115232041498      24.828814160879411       3.094156902664722
    29   1      14.826030429983827      14.999999999999963      1.3260672457205072
    30   1      14.009942339833765       17.74977410842197       1.326067245720072
    31   1      15.618657892231914      17.157684973518531      3.0941569026647473
    32   1      13.392710856413538      16.167565153453086      3.0941569026646127
    33   1      16.362689323655776      18.740376004145617      1.3260672457201161
    34   1      15.410329000947112       21.14260621812171      1.3260672457200573
    35   1      17.059328201552404      20.400487530924003      3.0941569026647326
    36   1      14.687654303147879      19.475971794420786      3.0941569026647375
    37   1      17.754669895554894      22.144182645955997        1.32606724572005
    38   1      16.773703932989324      24.495828365953443      1.3260672457200644
    39   1      18.414022220525201      23.864136823178615       3.094156902664718
    40   1      16.121118529146205      22.828536455931065      3.0941569026647278
    41   1      9.4666116123013335      14.999999999999975       1.326067245719909
    42   1      11.195691249184781      14.999999999999957      3.0941569026645137
    43   1      11.699510649686927      16.618477270761051      1.3260672457199851
    44   1      10.749636188869397      19.019543616715055      1.3260672457200202
    45   1      12.346032244408915      18.422722071598717      3.0941569026647335
    46   1      10.085519401592967      17.215441675733128      3.0941569026647708
    47   1      13.049738555211819      20.142189350670357       1.326067245720064
    48   1      12.148248693317983       22.55264168917768      1.3260672457200697
    49   1      13.766282677690421      21.854749867590126      3.0941569026647229
    50   1      11.437642238491625      20.814248370140238      3.0941569026647309
    51   1      14.458192472163494      23.550799082155507       1.326067245720064
    52   1      15.153467474445192      25.121594719502848      3.0941569026647331
    53   1      12.817994573770591      24.255122784257626       3.094156902664722
    54   1      6.9920835740508132      14.999999999999885      1.3260672457200746
    55   1      7.8115889537368473      16.318351499054049      3.0941569026644475
    56   1       8.500782564762444      17.906589272096223      1.3260672457200497
    57   1      7.5396138339350776      20.400487530923943      1.3260672457200586
    58   1      9.1619629014116111      19.685173585675408      3.0941569026647673
    59   1      9.8375922537182472      21.456869085920154      1.3260672457200462
    60   1      8.8943078529078612      23.864136823178665      1.3260672457200384
    61   1      10.505580344053726      23.222285106230444      3.0941569026647247
    62   1      8.2349555279375846      22.144182645956018      3.0941569026647224
    63   1      11.175025890821471      24.828814160879475      1.3260672457200493
    64   1      7.2539895653720103      24.495828365953454      3.0941569026647229
    65   1      18.020496932379359      12.093410727903951      3.0941569026646958
    66   1      18.681677269028569      10.314826414324479      1.3260672457200666
    67   1      17.331303321353897      13.681648500945801      1.3260672457198392
    68   1      18.414022220524743      6.1358631768212408      3.0941569026646767
    69   1      16.121118529145768      7.1714635440688417      3.0941569026646816
    70   1      17.754669895554464      7.8558173540438778      1.3260672457200122
    71   1      16.773703932988859      5.5041716340464522      1.3260672457200045
    72   1      17.059328201552042      9.5995124690759095      3.0941569026646958
    73   1      14.687654303147577       10.52402820557916      3.0941569026647056
    74   1      16.362689323655506      11.259623995854286      1.3260672457200842
    75   1      15.410329000946735      8.8573937818782138      1.3260672457200156
    76   1      15.618657892231726      12.842315026481433      3.0941569026647255
    77   1      13.392710856413393      13.832434846546841      3.0941569026645754
    78   1      14.009942339833561       12.25022589157796      1.3260672457200462
    79   1      15.153467474444716      4.8784052804970717      3.0941569026646727
    80   1      12.817994573770148      5.7448772157423491      3.0941569026646683
    81   1      14.458192472163054      6.4492009178444283      1.3260672457200076
    82   1      13.766282677690024      8.1452501324098208      3.0941569026646811
    83   1       11.43764223849127      9.1857516298597215      3.0941569026646891
    84   1        13.0497385552115      9.8578106493295881      1.3260672457200195
    85   1      12.148248693317568      7.4473583108222901      1.3260672457200031
    86   1      12.346032244408663      11.577277928401212      3.0941569026647087
    87   1      10.085519401592785      12.784558324266811      3.0941569026647753
    88   1      11.699510649686736      13.381522729238808      1.3260672457199731
    89   1      10.749636188869108      10.980456383284865       1.326067245719984
    90   1      11.175025890821026      5.1711858391205014      1.3260672457200118
    91   1      10.505580344053314      6.7777148937695468      3.0941569026646727
    92   1      8.2349555279371494      7.8558173540439009      3.0941569026646731
    93   1      9.8375922537178528      8.5431309140797804       1.326067245720002
    94   1      8.8943078529074135       6.135863176821271      1.3260672457200189
    95   1      9.1619629014112842      10.314826414324516      3.0941569026647353
    96   1       6.842974956038173      11.259623995854266      3.0941569026647877
    97   1      8.5007825647622184      12.093410727903679      1.3260672457200291
    98   1      7.5396138339347099      9.5995124690759628      1.3260672457200224
    99   1      7.8115889537366856        13.6816485009458      3.0941569026644462
   100   1      6.0989435246145378      12.842315026480946      1.3260672457200513
   101   1      7.2539895653715281      5.5041716340464513      3.0941569026646727
   102   1      4.9384781045457116      6.4492009178443821      3.0941569026646745
   103   1      6.6014041615284444      7.1714635440688506      1.3260672457200102
   104   1      5.6337531068273954      4.8784052804970628      1.3260672457199925
   105   1      5.8906146333293892      8.8573937818781747        3.09415690266469
   106   1      3.5300241875941367      9.8578106493295525      3.0941569026646896
   107   1      5.1679399355302111       10.52402820557904      1.3260672457200369
   108   1      4.2465683100726741      8.1452501324097586      1.3260672457200111
   109   1      4.4902279722161573      12.250225891577999      3.0941569026647273
   110   1      2.1797962820696117      13.381522729239178       3.094156902664623
   111   1      3.8729964887965824      13.832434846546912      1.3260672457198994
   112   1      2.8263178767913972      11.577277928401294      1.3260672457200422
   113   1      1.6553115232036852      5.1711858391204464      3.0941569026646745
   114   1      3.2982802061528051      5.7448772157422932      1.3260672457199996
   115   1      2.6285343257002269      7.4473583108222288      3.0941569026646718
   116   1     0.31787788610052276      8.5431309140797467      3.0941569026646643
   117   1      1.9179278708739482      9.1857516298597073      1.3260672457200249
   118   1     0.98586597643596563      6.7777148937694962        1.32606724572001
   119   1      1.2299218212517418      10.980456383284963      3.0941569026646354
   120   1     0.56580503397538173      12.784558324266836      1.3260672457201235
   121   1      6.0989435246145733      17.157684973518435      4.8622465596093543
   122   1      5.3063160623665286       14.99999999999987      6.6303362165533954
   123   1      6.8429749560384687      18.740376004145595      6.6303362165539506
   124   1       1.675976881567393      14.999999999999925      4.8622465596095514
   125   1      3.8729964887961463      16.167565153453044      4.8622465596095212
   126   1      2.8263178767915842      18.422722071598688      4.8622465596093667
   127   1      4.4902279722164558      17.749774108421924      6.6303362165540145
   128   1       2.179796282069562       16.61847727076103      6.6303362165541166
   129   1      5.1679399355305602       19.47597179442073      4.8622465596093756
   130   1      4.2465683100731066      21.854749867590087       4.862246559609396
   131   1      5.8906146333297951      21.142606218121703      6.6303362165540456
   132   1      3.5300241875945084      20.142189350670304      6.6303362165540509
   133   1      6.6014041615288868      22.828536455931065      4.8622465596093916
   134   1       5.633753106827851      25.121594719502838      4.8622465596093791
   135   1      4.9384781045461672      23.550799082155493       6.630336216554058
   136   1      17.331303321354177      16.318351499054064      4.8622465596095479
   137   1      18.986325979918711      14.999999999999964       6.630336216554217
   138   1      16.511797941668334      14.999999999999966      6.6303362165540038
   139   1     0.56580503397565207      17.215441675733107      4.8622465596092699
   140   1       18.68167726902897      19.685173585675376      4.8622465596093472
   141   1      1.2299218212520706      19.019543616715005      6.6303362165541007
   142   1      18.020496932379793      17.906589272096131      6.6303362165540429
   143   1      1.9179278708743186      20.814248370140181        4.86224655960938
   144   1     0.98586597643641594      23.222285106230373       4.862246559609396
   145   1      2.6285343257006732      22.552641689177623      6.6303362165540563
   146   1     0.31787788610093248      21.456869085920115      6.6303362165540713
   147   1      3.2982802061532674      24.255122784257569      4.8622465596093916
   148   1      1.6553115232041617      24.828814160879407      6.6303362165540678
   149   1      14.826030429983634      14.999999999999941      4.8622465596088951
   150   1       14.00994233983371      17.749774108421896       4.862246559609356
   151   1      15.618657892232038      17.157684973518929       6.630336216554011
   152   1      13.392710856413993      16.167565153452991      6.6303362165541415
   153   1      16.362689323655793      18.740376004145627      4.8622465596093178
   154   1       15.41032900094711      21.142606218121731      4.8622465596093898
   155   1      17.059328201552418      20.400487530923932      6.6303362165540429
   156   1       14.68765430314785      19.475971794420847      6.6303362165540332
   157   1      17.754669895554912         22.144182645956      4.8622465596094013
   158   1      16.773703932989335      24.495828365953429      4.8622465596093916
   159   1      18.414022220525197      23.864136823178629      6.6303362165540696
   160   1      16.121118529146212      22.828536455931047      6.6303362165540571
   161   1      9.4666116123018575      14.999999999999977      4.8622465596094999
   162   1      11.195691249185066      14.999999999999957      6.6303362165542277
   163   1      11.699510649687095      16.618477270760682      4.8622465596094351
   164   1      10.749636188869356      19.019543616714913      4.8622465596094138
   165   1      12.346032244408979      18.422722071598614      6.6303362165540314
   166   1      10.085519401592915      17.215441675733089       6.630336216553987
   167   1        13.0497385552118      20.142189350670339      4.8622465596093791
   168   1      12.148248693317987       22.55264168917768      4.8622465596093818
   169   1      13.766282677690405      21.854749867590147      6.6303362165540607
   170   1      11.437642238491652      20.814248370140206      6.6303362165540483
   171   1      14.458192472163491      23.550799082155507       4.862246559609388
   172   1      15.153467474445193      25.121594719502834      6.6303362165540545
   173   1      12.817994573770603      24.255122784257612      6.6303362165540616
   174   1      6.9920835740522804      14.999999999999899      4.8622465596093329
   175   1      7.8115889537367504       16.31835149905406      6.6303362165543041
   176   1      8.5007825647622663      17.906589272095886      4.8622465596093756
   177   1      7.5396138339350847      20.400487530923989      4.8622465596093871
   178   1      9.1619629014115862      19.685173585675422      6.6303362165540056
   179   1      9.8375922537182579      21.456869085920157      4.8622465596093996
   180   1       8.894307852907863      23.864136823178661      4.8622465596094129
   181   1      10.505580344053756      23.222285106230412      6.6303362165540589
   182   1      8.2349555279375704      22.144182645956025      6.6303362165540589
   183   1      11.175025890821482      24.828814160879464      4.8622465596094031
   184   1      7.2539895653719775      24.495828365953461       6.630336216554066
   185   1      18.020496932379547      12.093410727903736      6.6303362165540234
   186   1      18.681677269028626      10.314826414324502      4.8622465596093045
   187   1      17.331303321354035      13.681648500945832      4.8622465596095568
   188   1      18.414022220524735      6.1358631768212444      6.6303362165540092
   189   1      16.121118529145782      7.1714635440688559       6.630336216554003
   190   1      17.754669895554485      7.8558173540438894      4.8622465596093472
   191   1      16.773703932988859       5.504171634046453      4.8622465596093445
   192   1      17.059328201552066      9.5995124690759592      6.6303362165540074
   193   1      14.687654303147568        10.5240282055791       6.630336216553995
   194   1      16.362689323655527      11.259623995854296       4.862246559609293
   195   1      15.410329000946739      8.8573937818781996      4.8622465596093445
   196   1      15.618657892231861      12.842315026481055      6.6303362165539896
   197   1      13.392710856413849      13.832434846546944      6.6303362165541477
   198   1      14.009942339833506       12.25022589157804      4.8622465596093338
   199   1      15.153467474444708      4.8784052804970734      6.6303362165540127
   200   1      12.817994573770136      5.7448772157423358       6.630336216554011
   201   1      14.458192472163045      6.4492009178444158      4.8622465596093418
   202   1      13.766282677690024      8.1452501324098048      6.6303362165540092
   203   1      11.437642238491293      9.1857516298597446      6.6303362165540003
   204   1      13.049738555211482      9.8578106493295969      4.8622465596093445
   205   1      12.148248693317573      7.4473583108222794      4.8622465596093498
   206   1      12.346032244408736      11.577277928401321      6.6303362165539994
   207   1      10.085519401592732      12.784558324266852       6.630336216553947
   208   1      11.699510649686944      13.381522729239212      4.8622465596094182
   209   1      10.749636188869076         10.980456383285      4.8622465596093871
   210   1      11.175025890821033      5.1711858391204979      4.8622465596093321
   211   1      10.505580344053303      6.7777148937695335      6.6303362165540074
   212   1      8.2349555279371423      7.8558173540438938      6.6303362165540127
   213   1      9.8375922537178671       8.543130914079768      4.8622465596093534
   214   1      8.8943078529074171      6.1358631768212701      4.8622465596093285
   215   1      9.1619629014112558      10.314826414324502      6.6303362165539674
   216   1      6.8429749560381685      11.259623995854263       6.630336216553923
   217   1      8.5007825647620177       12.09341072790399      4.8622465596093569
   218   1       7.539613833934717      9.5995124690758971      4.8622465596093427
   219   1      7.8115889537365844      13.681648500945791      6.6303362165542827
   220   1      6.0989435246143735      12.842315026481483      4.8622465596093294
   221   1       7.253989565371552       5.504171634046461      6.6303362165540056
   222   1      4.9384781045457196      6.4492009178444052      6.6303362165540056
   223   1      6.6014041615284409      7.1714635440688275        4.86224655960934
   224   1      5.6337531068273909       4.878405280497053      4.8622465596093534
   225   1      5.8906146333293927      8.8573937818781907      6.6303362165540038
   226   1      3.5300241875941465      9.8578106493295437      6.6303362165540101
   227   1      5.1679399355302271      10.524028205579132      4.8622465596093312
   228   1       4.246568310072675      8.1452501324097764        4.86224655960934
   229   1      4.4902279722162062      12.250225891577896      6.6303362165539914
   230   1      2.1797962820693759      13.381522729238769       6.630336216554106
   231   1      3.8729964887959683       13.83243484654677      4.8622465596094937
   232   1      2.8263178767912942       11.57727792840115      4.8622465596093356
   233   1      1.6553115232036795      5.1711858391204526      6.6303362165540003
   234   1      3.2982802061528043      5.7448772157422976      4.8622465596093454
   235   1      2.6285343257002225      7.4473583108222385      6.6303362165540092
   236   1     0.31787788610051609      8.5431309140797502      6.6303362165540269
   237   1      1.9179278708739205      9.1857516298596735      4.8622465596093347
   238   1     0.98586597643596474       6.777714893769498      4.8622465596093383
   239   1       1.229921821251752       10.98045638328483      6.6303362165540713
   240   1     0.56580503397544868      12.784558324266786      4.8622465596092637
