(written by ASE)

144 atoms
1 atom types

0.0      11.177922746446793  xlo xhi
0.0                      30  ylo yhi
0.0      7.0723586277786685  zlo zhi

Atoms # atomic

     1   1      1.6395648970118568      18.935201450124538      2.2201586942331883
     2   1      1.0536864900746439       17.15827907272217     0.45206906202066888
     3   1      2.2377637303824263      20.707013190841447     0.45206903162258361
     4   1      8.2952049069764104      16.588763616596047       2.220158857177891
     5   1      10.597899114288495      17.739214675127531      2.2201587142862849
     6   1      9.4939762254554747      20.111041079201478      2.2201586937879054
     7   1   -0.018202704295516191      19.519375199107081     0.45206903421101952
     8   1      8.8835836439986657      18.372495096585329     0.45206901974018121
     9   1     0.57402863800040371      21.291991550338288      2.2201586877362192
    10   1      10.665537422795834       23.64438668897014      2.2201586817269297
    11   1      1.1792240610839808      23.051788781662371      0.4520690256184966
    12   1       10.08820568775355      21.874832067800881     0.45206902785838388
    13   1      1.7318283504572216      24.758618232997776      2.2201586810005374
    14   1    0.074495269586169852      25.273286807746349     0.45206902361758744
    15   1      5.0089377343192387      17.739214675812143      2.2201587083788947
    16   1      6.6426478806171012      17.158279061736579     0.45206901429783153
    17   1      7.2285262718909511      18.935201450773832        2.22015870078484
    18   1      6.1629900126827968       21.29199154965556      2.2201586846080712
    19   1      7.8267251031563392      20.707013191173939      0.4520690330464861
    20   1      5.5707586682330366      19.519375200747636     0.45206903764202211
    21   1      8.4363710107604817      22.482610005821826      2.2201586830279973
    22   1       7.320789722896472      24.758618232982272      2.2201586806545914
    23   1      9.0088595082454503      24.221279280072121     0.45206902452267345
    24   1      6.7681854348088688      23.051788781284049      0.4520690263529531
    25   1      2.7062435412974266      16.588763623710253       2.220158639191665
    26   1      3.2946222734179007      18.372495097275262     0.45206905075863835
    27   1      3.9050148524722896      20.111041078157221      2.2201586893634153
    28   1      2.8474096377104043      22.482610005069681      2.2201586836557152
    29   1      4.4992443143699115      21.874832066644363     0.45206902944861266
    30   1      5.0765760490333225      23.644386687874444      2.2201586814475149
    31   1      5.6634566416967056      25.273286807001082     0.45206902362257873
    32   1      3.4198981348628097      24.221279278847284     0.45206902451134878
    33   1      10.019731715076547      13.842070527798031     0.45206905249711327
    34   1      10.597904644565592       12.26078772234311      2.2201587475737585
    35   1      10.019727793728592      16.157931972891912     0.45206901864766585
    36   1      9.0088701355521419      5.7787227279969171     0.45206910089506275
    37   1      10.665547884664916       6.355615278608882      2.2201587578674551
    38   1      10.088215327874934      8.1251699682758929     0.45206909753940405
    39   1      7.8267338923312977      9.2929889901659433     0.45206909714309496
    40   1      9.4939844273642056      9.8889611516026221      2.2201587523272575
    41   1      8.4363810715663234      7.5173920857366028      2.2201587557174092
    42   1       8.883590079600765      11.627507271635443     0.45206906880626424
    43   1      6.6426527264457533       12.84172242286556     0.45206905300857436
    44   1      8.2952094137841144      13.411239823342719      2.2201588755396067
    45   1      7.2285333324140781      11.064800960158971      2.2201587493169779
    46   1      7.7991123535997673       15.00000137574664     0.45206886176088684
    47   1      6.0163463613053132      15.000001009392767      2.2201587604472799
    48   1      5.6634674725740366      4.7267151811117669     0.45206910161512526
    49   1      7.3208004638309463      5.2413838267713357      2.2201587581195827
    50   1      6.7681957246358655      6.9482132865659052     0.45206910041671211
    51   1      4.4992539554039332      8.1251699690051158     0.45206909912496096
    52   1      6.1629992556706634      8.7080105250455251      2.2201587515583654
    53   1      5.0765865115725699      6.3556152793071075      2.2201587576113782
    54   1      5.5707662755733649       10.48062684366465     0.45206909519604183
    55   1      3.2946287051784795       11.62750727207888     0.45206909981356308
    56   1      5.0089432768322109      12.260787723719702      2.2201587416623569
    57   1      3.9050230551402709      9.8889611514933513      2.2201587478900691
    58   1      4.4307703407798256      13.842070528897645     0.45206909452943483
    59   1      2.2101509805995341      15.000001344602717     0.45206917121049844
    60   1      4.4307664172634391      16.157931970871843     0.45206906068457287
    61   1       2.706248033516947      13.411239830709386      2.2201586575492747
    62   1      3.4199087620883586      5.7787227288759615     0.45206910085902374
    63   1       1.179234351812039      6.9482132868748394     0.45206909964044062
    64   1      2.8474196974105106      7.5173920866046586      2.2201587563139085
    65   1      1.7318390913139645      5.2413838266630828      2.2201587584069111
    66   1       2.237772518132104      9.2929889900709419     0.45206909569682197
    67   1   -0.018195099019404987      10.480626841114091     0.45206909176338655
    68   1      1.6395719601613654      11.064800958254866      2.2201587427545224
    69   1      0.5740378829642101      8.7080105252353057      2.2201587546696633
    70   1      1.0536913671301575      12.841722431440036     0.45206910072747236
    71   1     0.42738498715910311      15.000001010849175       2.220158706437771
    72   1    0.074506100285958332      4.7267151803326062     0.45206910155324515
    73   1      1.6395648970118606      18.935201450124531      5.7563380081225182
    74   1       1.053686490074651      17.158279072722173      3.9882483759099845
    75   1      2.2377637303824294      20.707013190841444      3.9882483455119249
    76   1      8.2952049069764442      16.588763616596019       5.756338171067223
    77   1      10.597899114288509      17.739214675127503      5.7563380281756169
    78   1      9.4939762254554765      20.111041079201474      5.7563380076772424
    79   1   -0.018202704295518506      19.519375199107085      3.9882483481003637
    80   1      8.8835836439986675      18.372495096585318      3.9882483336295333
    81   1     0.57402863800040371      21.291991550338295      5.7563380016255534
    82   1      10.665537422795834      23.644386688970144      5.7563379956162626
    83   1      1.1792240610839768      23.051788781662374      3.9882483395078241
    84   1      10.088205687753547      21.874832067800885      3.9882483417477199
    85   1      1.7318283504572243      24.758618232997769      5.7563379948898703
    86   1     0.07449526958616709      25.273286807746352      3.9882483375069144
    87   1      5.0089377343192192      17.739214675812143      5.7563380222682303
    88   1      6.6426478806170985      17.158279061736565      3.9882483281871957
    89   1      7.2285262718909449      18.935201450773835      5.7563380146741681
    90   1      6.1629900126827959       21.29199154965556      5.7563379984974103
    91   1      7.8267251031563392      20.707013191173935      3.9882483469358241
    92   1      5.5707586682330374      19.519375200747632      3.9882483515313516
    93   1      8.4363710107604835      22.482610005821833      5.7563379969173383
    94   1      7.3207897228964631      24.758618232982283      5.7563379945439195
    95   1      9.0088595082454557      24.221279280072103      3.9882483384120135
    96   1      6.7681854348088697      23.051788781284042      3.9882483402422926
    97   1      2.7062435412974146       16.58876362371025      5.7563379530809966
    98   1      3.2946222734179007      18.372495097275262      3.9882483646479643
    99   1      3.9050148524722905      20.111041078157228      5.7563380032527531
   100   1      2.8474096377104057      22.482610005069681      5.7563379975450397
   101   1      4.4992443143699123       21.87483206664437      3.9882483433379505
   102   1      5.0765760490333198      23.644386687874462      5.7563379953368461
   103   1      5.6634566416967003      25.273286807001078      3.9882483375118976
   104   1      3.4198981348628057      24.221279278847298      3.9882483384006728
   105   1      10.019731715076555      13.842070527798024      3.9882483663864514
   106   1      10.597904644565583      12.260787722343105      5.7563380614630901
   107   1      10.019727793728595       16.15793197289192      3.9882483325369655
   108   1      9.0088701355521454       5.778722727996926       3.988248414784402
   109   1      10.665547884664923      6.3556152786088855       5.756338071756792
   110   1      10.088215327874936      8.1251699682758982      3.9882484114287347
   111   1      7.8267338923312995      9.2929889901659504      3.9882484110324365
   112   1      9.4939844273642127      9.8889611516026203      5.7563380662165926
   113   1      8.4363810715663288      7.5173920857366028      5.7563380696067448
   114   1      8.8835900796007596       11.62750727163545      3.9882483826955966
   115   1       6.642652726445748      12.841722422865569      3.9882483668978983
   116   1       8.295209413784109      13.411239823342735      5.7563381894289485
   117   1      7.2285333324140826      11.064800960158976      5.7563380632063179
   118   1      7.7991123535997779      15.000001375746645      3.9882481756502042
   119   1      6.0163463613053176      15.000001009392767      5.7563380743366013
   120   1      5.6634674725740348      4.7267151811117651      3.9882484155044549
   121   1      7.3208004638309445      5.2413838267713349      5.7563380720089086
   122   1      6.7681957246358673      6.9482132865659061       3.988248414306049
   123   1      4.4992539554039359      8.1251699690051176      3.9882484130142926
   124   1      6.1629992556706599      8.7080105250455269      5.7563380654476957
   125   1      5.0765865115725672      6.3556152793071066      5.7563380715007098
   126   1      5.5707662755733685      10.480626843664657       3.988248409085382
   127   1      3.2946287051784831      11.627507272078878      3.9882484137029093
   128   1      5.0089432768322171      12.260787723719714      5.7563380555516872
   129   1       3.905023055140266      9.8889611514933478      5.7563380617793998
   130   1      4.4307703407798229      13.842070528897644      3.9882484084187562
   131   1      2.2101509805995256      15.000001344602726      3.9882484850998292
   132   1      4.4307664172634293      16.157931970871843       3.988248374573907
   133   1      2.7062480335169607      13.411239830709398      5.7563379714386143
   134   1      3.4199087620883555      5.7787227288759579      3.9882484147483526
   135   1      1.1792343518120363      6.9482132868748385      3.9882484135297704
   136   1      2.8474196974105102      7.5173920866046586      5.7563380702032374
   137   1      1.7318390913139685      5.2413838266630854      5.7563380722962485
   138   1      2.2377725181321013      9.2929889900709384       3.988248409586153
   139   1   -0.018195099019407791      10.480626841114098      3.9882484056527128
   140   1      1.6395719601613592      11.064800958254871      5.7563380566438545
   141   1      0.5740378829642131      8.7080105252353075       5.756338068558998
   142   1      1.0536913671301507      12.841722431440033      3.9882484146168196
   143   1     0.42738498715909701      15.000001010849173      5.7563380203271164
   144   1    0.074506100285960289      4.7267151803326071      3.9882484154425812
