(written by ASE)

160 atoms
1 atom types

0.0      12.746228261363814  xlo xhi
0.0                      30  ylo yhi
0.0      7.0723586277786685  zlo zhi

Atoms # atomic

     1   1      12.682608627070413      18.546478143235809      1.3260674730960991
     2   1      11.675634217153291      16.818159041984249      3.0941571229409779
     3   1       7.794564250438305       17.50794187509937       1.326067468836142
     4   1      9.2823811334395732      16.282308687416684       3.094157117147454
     5   1      6.7489319260111591      16.159896273726428      3.0941571212392152
     6   1      10.284660359275346      17.803049773291825      1.3260674678202462
     7   1      9.8228935778501452      20.459183949424968      1.3260674771783392
     8   1      11.248866135902068      19.444607913960887      3.0941571318003067
     9   1      8.8222002093327188      18.924668212232692      3.0941571294449552
    10   1      12.272743623924692      21.046926138219554      1.3260674793620109
    11   1      11.820505926021561      23.589651118401196      1.3260674831029906
    12   1      10.828957368986048      22.019301060133607      3.0941571377498396
    13   1    0.053164472356482563      25.006174195133656      3.0941571408572153
    14   1      2.9092670033226411      16.282308687689373      1.3260674602821769
    15   1      5.3025200852722527      16.818159042180948      1.3260674663315468
    16   1      4.8757520054070422      19.444607913925573      1.3260674748686028
    17   1      6.3094944958967352      18.546478143846805      3.0941571299690054
    18   1      3.9115462287967304      17.803049773353322      3.0941571246389112
    19   1      7.3522571764584699      20.025417538820808      1.3260674767894629
    20   1      6.9367333845737393      22.574002636305977      1.3260674817756226
    21   1      8.3797301988186828      21.520100449475116      3.0941571367288598
    22   1       5.899629493192343      21.046926137749491      3.0941571363003608
    23   1      9.3792459050338746       23.06343706423235       1.326067482242355
    24   1      10.367878636892673       24.52385708420536      3.0941571403993322
    25   1      7.9175583224994224      24.091339690101037      3.0941571401496746
    26   1     0.37581779473290516      16.159896274393454      1.3260674647462833
    27   1      1.4214501192482891      17.507941875348397      3.0941571255931382
    28   1      2.4490860783822481      18.924668212638593      1.3260674725640347
    29   1      2.0066160679562697      21.520100450176752      1.3260674797877416
    30   1      3.4497794468876837      20.459183949877186      3.0941571341159571
    31   1      0.9791430458995265      20.025417539340197      3.0941571337387628
    32   1      4.4558432382117505      22.019301060315396      1.3260674807856259
    33   1      3.9947645064559336       24.52385708444082      1.3260674834346518
    34   1      5.4473917954337541      23.589651118150449      3.0941571400257906
    35   1      3.0061317742350999      23.063437064860697      3.0941571391891647
    36   1       6.426278603492265      25.006174194491699      1.3260674838822288
    37   1     0.56361925389858292      22.574002636952297      3.0941571387454627
    38   1      1.5444441917369314      24.091339690999476      1.3260674832219548
    39   1       11.67563413308581      13.181840910157907      3.0941570964470522
    40   1      10.730104872937572      14.999999987562967      1.3260674530157124
    41   1      10.828957175571574      7.9806989188060555      3.0941570792489621
    42   1      11.820505717330695      6.4103488617667184      1.3260674193288486
    43   1       11.24886598981705       10.55539206034334      3.0941570865449113
    44   1      8.8222000706517676      11.075331760200234      3.0941570891875267
    45   1      10.284660243806835      12.196950195652182      1.3260674376499479
    46   1        9.82289340715813      9.5408160252650909      1.3260674267943389
    47   1      9.2823810666347732      13.717691286754139      3.0941571024645378
    48   1       6.748931849776544      13.840103710477715       3.094157097717444
    49   1      8.0799522485108781      14.999999987622306      1.3260674531732113
    50   1      7.7945641476132304      12.492058105479929      1.3260674367680299
    51   1      10.367878423881768        5.47614289572443      3.0941570758147927
    52   1       7.917558110435662      5.9086602853273247      3.0941570761077539
    53   1      9.3792456994026985      6.9365629136482054      1.3260674204325744
    54   1      8.3797300100467407      8.4798995248220681      3.0941570805147447
    55   1      5.8996293143937999      8.9530738429590713      3.0941570810725998
    56   1       7.352257017498709      9.9745824383241963       1.326067427270643
    57   1      6.9367331833440389      7.4259973408129403      1.3260674210198016
    58   1      6.3094943734695272      11.453521839593547      3.0941570885862997
    59   1      3.9115461125768598      12.196950195226567      3.0941570944968411
    60   1      5.3025200033382163      13.181840910202599      1.3260674397817485
    61   1      4.8757518586888438      10.555392060175329      1.3260674296117976
    62   1      4.3569907421135934      14.999999987513604      3.0941571099483269
    63   1      1.7068381177668817      14.999999986850236      3.0941571098239193
    64   1      2.9092669352023433        13.7176912867974      1.3260674455926029
    65   1      6.4262783873921396      4.9938257835289814      1.3260674182479018
    66   1      5.4473915867254563      6.4103488621928291      3.0941570762673769
    67   1      3.0061315686702175      6.9365629130807642      3.0941570773798328
    68   1       4.455843044781866      7.9806989187990354      1.3260674222950697
    69   1      3.9947642934794301      5.4761428956095015      1.3260674188627166
    70   1      3.4497792763878317      9.5408160248485316      3.0941570837370862
    71   1     0.97914288655182113      9.9745824378150854      3.0941570842148955
    72   1      2.4490859399473273      11.075331759664687        1.32606743228934
    73   1      2.0066158792652491      8.4798995240437307      1.3260674235678807
    74   1      1.4214500173821605      12.492058105204062      3.0941570935550593
    75   1     0.37581771986279322      13.840103711086162      1.3260674411578652
    76   1      12.682608503782754      11.453521838584519      1.3260674316897165
    77   1    0.053164256271461111      4.9938257828339241      3.0941570752031087
    78   1      1.5444439796424325      5.9086602843908214      1.3260674191677928
    79   1      0.5636190525467929      7.4259973399755959      3.0941570779748626
    80   1      12.272743445135379      8.9530738427824659      1.3260674241234693
    81   1      12.682608627070422      18.546478143235799      4.8622467869857049
    82   1       11.67563421715451      16.818159041981303      6.6303364368303459
    83   1       7.794564250438353      17.507941875099402      4.8622467827255473
    84   1      9.2823811334400403      16.282308687416148      6.6303364310369135
    85   1      6.7489319260114611      16.159896273726414      6.6303364351283491
    86   1      10.284660359275343      17.803049773291772      4.8622467817109252
    87   1       9.822893577850131      20.459183949424947      4.8622467910677782
    88   1      11.248866135902126       19.44460791396066      6.6303364456896219
    89   1      8.8222002093323564      18.924668212232991      6.6303364433343024
    90   1      12.272743623924692      21.046926138219572      4.8622467932514031
    91   1      11.820505926021557      23.589651118401203      4.8622467969923289
    92   1      10.828957368986028      22.019301060133593      6.6303364516391676
    93   1    0.053164472356477713      25.006174195133646      6.6303364547465611
    94   1      2.9092670033225985      16.282308687689412      4.8622467741727222
    95   1      5.3025200852721364      16.818159042181218      4.8622467802211577
    96   1      4.8757520054070342       19.44460791392558      4.8622467887578322
    97   1      6.3094944958966916      18.546478143846826      6.6303364438583623
    98   1      3.9115462287967038      17.803049773353806      6.6303364385283663
    99   1      7.3522571764584619      20.025417538820808       4.862246790678646
   100   1      6.9367333845737384      22.574002636305966      4.8622467956649063
   101   1      8.3797301988186099      21.520100449475205      6.6303364506182003
   102   1      5.8996294931923856      21.046926137749459      6.6303364501897066
   103   1      9.3792459050338781       23.06343706423235      4.8622467961316795
   104   1      10.367878636892671      24.523857084205353      6.6303364542886731
   105   1      7.9175583224994188      24.091339690101051      6.6303364540390088
   106   1     0.37581779473288324      16.159896274393414      4.8622467786334491
   107   1      1.4214501192477775      17.507941875348067      6.6303364394824804
   108   1      2.4490860783822823      18.924668212638558      4.8622467864535217
   109   1       2.006616067956279      21.520100450176738      4.8622467936770528
   110   1      3.4497794468877552      20.459183949877332      6.6303364480053002
   111   1     0.97914304589958057      20.025417539340218      6.6303364476280846
   112   1       4.455843238211755      22.019301060315392      4.8622467946749373
   113   1      3.9947645064559336      24.523857084440824      4.8622467973240111
   114   1      5.4473917954337718      23.589651118150417      6.6303364539151239
   115   1      3.0061317742350977      23.063437064860711      6.6303364530784963
   116   1      6.4262786034922694      25.006174194491674      4.8622467977715704
   117   1     0.56361925389858814      22.574002636952311      6.6303364526347863
   118   1       1.544444191736928      24.091339690999476      4.8622467971112773
   119   1      11.675634133087046      13.181840910160904      6.6303364103364251
   120   1      10.730104872937579      14.999999987562971      4.8622467669024907
   121   1      10.828957175571558      7.9806989188060689      6.6303363931382853
   122   1      11.820505717330686      6.4103488617667042      4.8622467332181918
   123   1      11.248865989817107      10.555392060343566      6.6303364004342358
   124   1      8.8222000706513981      11.075331760199916      6.6303364030768792
   125   1      10.284660243806838      12.196950195652228       4.862246751540658
   126   1      9.8228934071581193      9.5408160252651033      4.8622467406837728
   127   1      9.2823810666352351      13.717691286754681      6.6303364163539946
   128   1      6.7489318497768203      13.840103710477743      6.6303364116065406
   129   1      8.0799522485112227      14.999999987622312      4.8622467670623992
   130   1      7.7945641476132828      12.492058105479902      4.8622467506574454
   131   1      10.367878423881772      5.4761428957244345      6.6303363897041345
   132   1      7.9175581104356576      5.9086602853273344      6.6303363899970957
   133   1      9.3792456994026931      6.9365629136481983      4.8622467343218991
   134   1      8.3797300100466678      8.4798995248219828       6.630336394404079
   135   1      5.8996293143938461      8.9530738429590997      6.6303363949619394
   136   1       7.352257017498701      9.9745824383241963      4.8622467411598222
   137   1      6.9367331833440398      7.4259973408129447      4.8622467349090801
   138   1      6.3094943734694811      11.453521839593522      6.6303364024756659
   139   1      3.9115461125768376      12.196950195226087      6.6303364083863263
   140   1       5.302520003338083      13.181840910202277      4.8622467536713438
   141   1      4.8757518586888393      10.555392060175306      4.8622467435010366
   142   1       4.356990742113485      14.999999987513601       6.630336423837413
   143   1       1.706838117763503      14.999999986850225      6.6303364237132296
   144   1       2.909266935202294      13.717691286797342      4.8622467594831305
   145   1       6.426278387392145      4.9938257835289894      4.8622467321372635
   146   1      5.4473915867254687      6.4103488621928788      6.6303363901567085
   147   1      3.0061315686702161      6.9365629130807624        6.63033639126916
   148   1       4.455843044781874      7.9806989187990354      4.8622467361843746
   149   1      3.9947642934794296      5.4761428956094953      4.8622467327520749
   150   1      3.4497792763879005      9.5408160248483966      6.6303363976264338
   151   1      0.9791428865518722      9.9745824378150605      6.6303363981042143
   152   1      2.4490859399473686      11.075331759664717      4.8622467461788315
   153   1      2.0066158792652584      8.4798995240437396      4.8622467374571894
   154   1      1.4214500173816436      12.492058105204389      6.6303364074444078
   155   1     0.37581771986276918      13.840103711086179      4.8622467550449997
   156   1       12.68260850378276      11.453521838584518       4.862246745579327
   157   1    0.053164256271460944      4.9938257828339232      6.6303363890924496
   158   1      1.5444439796424312      5.9086602843908125       4.862246733057118
   159   1     0.56361905254679812      7.4259973399755799      6.6303363918641862
   160   1      12.272743445135381      8.9530738427824659      4.8622467380128604
