(written by ASE)

180 atoms
1 atom types

0.0      14.584242368018158  xlo xhi
0.0                      30  ylo yhi
0.0      7.0723586277786685  zlo zhi

Atoms # atomic

     1   1      6.1724712435849547      18.289341078989654 -1.1405628741159505e-06
     2   1      5.7384895037866333      16.582851124760516      1.7680885003948366
     3   1      7.1159620630101958      21.866674254918802 -1.1192620381833491e-06
     4   1      6.6574003229453744      20.041437927269794      1.7680885285497827
     5   1      3.9286721358304608      16.920000811707567 -1.1494614631896115e-06
     6   1      2.7688067811194697      19.165073243683469 -1.1316146813128943e-06
     7   1      4.4421802316989476      18.735066639055383      1.7680885220065623
     8   1      2.3467787833642633      17.241830202252949       1.768088511259815
     9   1      4.9364018349260119      20.522689151733939 -1.1247488886061913e-06
    10   1      3.6929391087716135      22.772225023901349 -1.1164146392951205e-06
    11   1      5.4114027202948449      22.320320070238377      1.7680885391543277
    12   1      3.2187697886220064      20.980905706367231      1.7680885348517608
    13   1      5.8486615635594807      24.056708963501713 -1.1148749047499453e-06
    14   1      4.1177539986338338      24.503061092321346      1.7680885428052679
    15   1      13.030610670790201       16.58285107758082 -1.1565382689323188e-06
    16   1     0.69571309301301321      17.766606693696026 -1.1425645128816362e-06
    17   1      13.949521505834147      20.041437925926086 -1.1282720441891622e-06
    18   1      1.0783033236840494      19.578915725992552      1.7680885269342124
    19   1      13.464592427842998      18.289341080185885      1.7680885165566422
    20   1      1.5148005296709615      21.408913517224793  -1.120467759853663e-06
    21   1     0.25984970251824374      23.660209882000853  -1.115101898644277e-06
    22   1      1.9520904471311882      23.225462958402534      1.7680885416189953
    23   1      14.408083245155117      21.866674253463266      1.7680885378169919
    24   1      2.4129193924247878      24.890651272392102 -1.1136604348975365e-06
    25   1      9.6388998933646057        17.2418301980885 -1.1455765516527999e-06
    26   1      11.220793398423073      16.920000748995225      1.7680885076863493
    27   1      11.734301422372884      18.735066649707065 -1.1347632502548527e-06
    28   1      10.510890975080464      20.980905704839234 -1.1219547807995115e-06
    29   1       12.22852301691819      20.522689151758389      1.7680885323838038
    30   1       10.06092795599044      19.165073259039826      1.7680885254643466
    31   1      12.703523902957235      22.320320069656908  -1.117580979941013e-06
    32   1      11.409875183774023      24.503061094071796 -1.1139466279128829e-06
    33   1      13.140782747701691      24.056708964126159      1.7680885422930539
    34   1      10.985060293573268      22.772225024458187      1.7680885406965832
    35   1      7.9878342837458884      17.766606682372672      1.7680885144194132
    36   1      8.3704245084523201      19.578915722823421 -1.1299971553480021e-06
    37   1        8.80692171470624      21.408913516768855      1.7680885364802825
    38   1      9.2442116319212371      23.225462959971612 -1.1152945527931749e-06
    39   1      9.7050405775630217       24.89065127425722      1.7680885433851385
    40   1      7.5519708874668181      23.660209882670816       1.768088541710972
    41   1     0.21829603651232654      16.161244167776371      1.7680885069446879
    42   1      7.5104172781090872      16.161244196119817 -1.1500453464994633e-06
    43   1      13.949522129230127      9.9585621442429915  -1.216578083280907e-06
    44   1       13.03061097498562      13.417149040649196 -1.1889585470807816e-06
    45   1      13.464592890890296      11.710659011898199       1.768088452195073
    46   1      12.661981381386967      15.000000128517474      1.7680884843220153
    47   1      11.409876037223111      5.4969389632242969 -1.2299326314380666e-06
    48   1      13.140783581379303      5.9432910894511837      1.7680884275742568
    49   1      12.703524689068429      7.6796799942260137 -1.2266337131859577e-06
    50   1      10.510891660842338      9.0190943455928831 -1.2225636686591446e-06
    51   1      12.228523678189504      9.4773109200333732      1.7680884368905823
    52   1      10.985061095817374      7.2277750333787605      1.7680884290887837
    53   1      11.734301916594505      11.264933435541177 -1.2102565244570267e-06
    54   1      9.6389002572783227      12.758169831084762  -1.199795548967757e-06
    55   1      11.220793626221326      13.079999214290826      1.7680884608907259
    56   1       10.06092847031938      10.834926796489116      1.7680884434474657
    57   1       10.92790368360172      15.000000020345121 -1.1727571845912723e-06
    58   1      9.1139422618605455      15.000000033561513      1.7680884841590052
    59   1      9.7050414403601657      5.1093487703179479      1.7680884266054575
    60   1      9.2442124435460649      6.7745370760843047 -1.2288593387704755e-06
    61   1      7.1159628175029299      8.1333257960533292  -1.225421482046473e-06
    62   1      8.8069224292216948      8.5910865181094813      1.7680884328301065
    63   1      7.5519717111119009      6.3397901511807051      1.7680884277759905
    64   1      8.3704250702715388      10.421084330136724 -1.2150472101112073e-06
    65   1      6.1724717071062534      11.710659009886879 -1.2049280551125784e-06
    66   1      7.9878346656209436      12.233393404576939      1.7680884540582626
    67   1      6.6574009458387362      9.9585621448437021       1.768088440229663
    68   1      7.5104174412433053      13.838755960309237 -1.1955612584915344e-06
    69   1      5.3698601965050043      14.999999954998765 -1.1729745990552891e-06
    70   1      5.7384897720165489      13.417149087408584      1.7680884679683615
    71   1      5.8486623975756489      5.9432910888886896 -1.2297216439279802e-06
    72   1      3.6929399124307571      7.2277750335448037 -1.2283130451374626e-06
    73   1       5.411403505211859      7.6796799942551912      1.7680884299757906
    74   1      4.1177548528627028      5.4969389629773904      1.7680884264292069
    75   1      4.9364024940106717      9.4773109187605939 -1.2203167001079967e-06
    76   1      2.7688072779808106       10.83492677921566 -1.2136392351870785e-06
    77   1      4.4421807403524483      11.264933422950406       1.768088446506735
    78   1      3.2187704796843524      9.0190943464527127      1.7680884341002969
    79   1      3.9286725205793362      13.079999275394798 -1.1962122217442428e-06
    80   1      1.8218210780732189      15.000000035796118 -1.1728638128750101e-06
    81   1      3.6357824987058773      15.000000017845325      1.7680884840982403
    82   1      2.3467789997150845      12.758169832902366      1.7680884570777065
    83   1      2.4129202556821778      5.1093487703646225 -1.2309240762437247e-06
    84   1     0.25985052643873569      6.3397901516788924  -1.229173836718322e-06
    85   1      1.9520912586970574      6.7745370760265953      1.7680884277261897
    86   1      1.5148012448743127      8.5910865189688366 -1.2242584227424155e-06
    87   1      1.0783038865075114       10.42108433253458      1.7680884418707121
    88   1      14.408084001190003      8.1333257956830938      1.7680884316177929
    89   1     0.69571348924237786      12.233393415135465 -1.2028777093187966e-06
    90   1     0.21829631767733892      13.838755930575383      1.7680884614612105
    91   1      6.1724712435849654      18.289341078989651      3.5361781733264692
    92   1      5.7384895037866599      16.582851124760516      5.3042678142841631
    93   1      7.1159620630102065      21.866674254918816       3.536178194627305
    94   1      6.6574003229453904      20.041437927269786      5.3042678424391081
    95   1      3.9286721358304719       16.92000081170756      3.5361781644278816
    96   1      2.7688067811194528      19.165073243683466      3.5361781822746527
    97   1      4.4421802316989458      18.735066639055379      5.3042678358958995
    98   1      2.3467787833642593      17.241830202252959      5.3042678251491582
    99   1      4.9364018349260164      20.522689151733953      3.5361781891404611
   100   1      3.6929391087716286       22.77222502390136      3.5361781974746869
   101   1      5.4114027202948369      22.320320070238402      5.3042678530436618
   102   1      3.2187697886220024      20.980905706367253      5.3042678487410972
   103   1      5.8486615635594772      24.056708963501716      3.5361781990143939
   104   1      4.1177539986338498      24.503061092321339      5.3042678566946062
   105   1       13.03061067079021       16.58285107758083      3.5361781573510496
   106   1      0.6957130930130131      17.766606693696041      3.5361781713248095
   107   1      13.949521505834158      20.041437925926093      3.5361781856173007
   108   1      1.0783033236840458      19.578915725992552      5.3042678408235604
   109   1      13.464592427843012      18.289341080185888      5.3042678304459647
   110   1      1.5148005296709768      21.408913517224793       3.536178193421565
   111   1     0.25984970251824491      23.660209882000864       3.536178198787455
   112   1      1.9520904471312055      23.225462958402524      5.3042678555083222
   113   1      14.408083245155117       21.86667425346327      5.3042678517063147
   114   1      2.4129193924247971      24.890651272392116      3.5361782002289228
   115   1      9.6388998933646057      17.241830198088518       3.536178168312762
   116   1      11.220793398423062      16.920000748995225      5.3042678215756744
   117   1      11.734301422372891      18.735066649707093       3.536178179126082
   118   1      10.510890975080448       20.98090570483923       3.536178191934563
   119   1      12.228523016918203      20.522689151758378      5.3042678462731354
   120   1      10.060927955990424      19.165073259039854       5.304267839353674
   121   1      12.703523902957246      22.320320069656905      3.5361781963083541
   122   1      11.409875183774018      24.503061094071782      3.5361781999426842
   123   1      13.140782747701671      24.056708964126155      5.3042678561823893
   124   1      10.985060293573264      22.772225024458187      5.3042678545859427
   125   1      7.9878342837459044      17.766606682372657      5.3042678283087472
   126   1      8.3704245084523272      19.578915722823435      3.5361781838921784
   127   1      8.8069217147062346      21.408913516768862      5.3042678503696115
   128   1      9.2442116319212371      23.225462959971608      3.5361781985947971
   129   1      9.7050405775630413      24.890651274257227      5.3042678572744775
   130   1      7.5519708874668057      23.660209882670845      5.3042678556003198
   131   1     0.21829603651232443      16.161244167776353      5.3042678208340162
   132   1      7.5104172781090925      16.161244196119828       3.536178163843962
   133   1       13.94952212923012      9.9585621442429915      3.5361780973112444
   134   1      13.030610974985617      13.417149040649189      3.5361781249307929
   135   1      13.464592890890287      11.710659011898201       5.304267766084398
   136   1      12.661981381386967      15.000000128517476      5.3042677982113622
   137   1      11.409876037223103      5.4969389632242942      3.5361780839566981
   138   1      13.140783581379285      5.9432910894511775      5.3042677414635921
   139   1      12.703524689068432       7.679679994226011      3.5361780872556117
   140   1      10.510891660842331      9.0190943455928743       3.536178091325672
   141   1      12.228523678189497      9.4773109200333874      5.3042677507799061
   142   1      10.985061095817372      7.2277750333787676       5.304267742978106
   143   1      11.734301916594502      11.264933435541176       3.536178103632805
   144   1      9.6389002572783067      12.758169831084764      3.5361781140937856
   145   1      11.220793626221335      13.079999214290826      5.3042677747800591
   146   1       10.06092847031938      10.834926796489109      5.3042677573368069
   147   1      10.927903683601713      15.000000020345135      3.5361781411321584
   148   1      9.1139422618605312      15.000000033561514      5.3042677980483317
   149   1       9.705041440360171      5.1093487703179594      5.3042677404948027
   150   1      9.2442124435460524      6.7745370760842905      3.5361780850299898
   151   1      7.1159628175029299      8.1333257960533292      3.5361780884678473
   152   1      8.8069224292216948      8.5910865181094689      5.3042677467194403
   153   1      7.5519717111118982      6.3397901511806989      5.3042677416653365
   154   1      8.3704250702715335      10.421084330136726      3.5361780988421256
   155   1      6.1724717071062463       11.71065900988687      3.5361781089612911
   156   1      7.9878346656209418      12.233393404576955      5.3042677679475965
   157   1      6.6574009458387353      9.9585621448437038      5.3042677541189978
   158   1      7.5104174412433071      13.838755960309236      3.5361781183280558
   159   1      5.3698601965049875      14.999999954998772      3.5361781409147048
   160   1      5.7384897720165693      13.417149087408617      5.3042677818576918
   161   1      5.8486623975756533       5.943291088888687      3.5361780841676831
   162   1      3.6929399124307638      7.2277750335448001      3.5361780855762825
   163   1      5.4114035052118599       7.679679994255193      5.3042677438651262
   164   1      4.1177548528627153      5.4969389629773922       5.304267740318541
   165   1      4.9364024940106743      9.4773109187605957      3.5361780935726324
   166   1      2.7688072779808155      10.834926779215666      3.5361781002501074
   167   1      4.4421807403524465      11.264933422950421      5.3042677603960655
   168   1      3.2187704796843595      9.0190943464527251      5.3042677479896332
   169   1      3.9286725205793354      13.079999275394794      3.5361781176771223
   170   1      1.8218210780732291      15.000000035796118      3.5361781410255357
   171   1      3.6357824987058889       15.00000001784532      5.3042677979875732
   172   1      2.3467789997150743      12.758169832902368      5.3042677709670407
   173   1        2.41292025568218      5.1093487703646261      3.5361780829652725
   174   1     0.25985052643873846      6.3397901516788888        3.53617808471552
   175   1      1.9520912586970753      6.7745370760266104      5.3042677416155239
   176   1      1.5148012448743129      8.5910865189688295      3.5361780896309178
   177   1      1.0783038865075119      10.421084332534576      5.3042677557600486
   178   1      14.408084001190009      8.1333257956830973      5.3042677455071239
   179   1     0.69571348924238652      12.233393415135469      3.5361781110116262
   180   1     0.21829631767732849      13.838755930575379      5.3042677753505476
