(written by ASE)

228 atoms
1 atom types

0.0       17.68089656944667  xlo xhi
0.0                      30  ylo yhi
0.0      7.0723586277786685  zlo zhi

Atoms # atomic

     1   1      1.5228890940873263      16.163768201005276      1.7680979604366736
     2   1     0.12367474972998588      13.158481737568069  8.6180943256397244e-06
     3   1      14.217051708402202       14.99999999867795      1.7680981339247464
     4   1      15.415796247800589      13.694614646405746  8.4913242358545777e-06
     5   1       12.88982155294015      13.723677149284821  8.4784299812252102e-06
     6   1      16.843812797266096      15.000000005145578      1.7680981270556657
     7   1      16.478451144566968      17.847690434382962      1.7680980548511387
     8   1     0.12367413992542979      16.841518500363634  8.5590465421378963e-06
     9   1      15.415795780940229      16.305385312575218   8.458770019301437e-06
    10   1      1.2071206288259417      18.566337972492672      1.7680980615302742
    11   1     0.92753097820664954      21.075484855941742       1.768098057785231
    12   1      17.510410782842452       19.49628360300736  8.4186530350525672e-06
    13   1      8.9641230559334293      13.158481741580855      1.7680982364696896
    14   1      11.630712616321571      15.000000046803958      1.7680981984286754
    15   1       11.47093720099525      17.497105907716161      1.7680981217587679
    16   1      12.889821057366998      16.276322864943495  8.4404866432930885e-06
    17   1      10.363337393610578      16.163768184166507  8.3523352964923063e-06
    18   1      14.006910474667535      17.603298300707515      1.7680980991198698
    19   1      13.682947580434423      20.217478047929845      1.7680980678846308
    20   1      15.086683929874157      19.010348440186636  8.4307769928047865e-06
    21   1      12.588088048859722      18.839449194910898  8.4162987464830287e-06
    22   1      16.150698585454968      20.546505058634501      1.7680980648263753
    23   1      15.841822744819485       23.18697076403063       1.768098046309023
    24   1      17.222690422025668      22.097130379072738  8.3915828061196789e-06
    25   1      14.770131609828434      21.666419244273822  8.3987220060680847e-06
    26   1     0.61629380327427752      23.643041833727946      1.7680980417790442
    27   1      1.6970317793218059      25.033987597327418  8.3807406868251021e-06
    28   1      16.895769489978328      24.621623802647346  8.3833006255018356e-06
    29   1       4.049373263133079      13.723677151717622      1.7680981289553763
    30   1      6.5753479574066631       13.69461464862702       1.768098149295974
    31   1      6.5753475020338463      16.305385314792598      1.7680981167390988
    32   1      8.0033645125885915      15.000000005115162  8.4714116705861859e-06
    33   1      5.3766034237196312      14.999999997159479  8.4753112276116867e-06
    34   1      8.9641224027905757      16.841518504507523      1.7680981777077276
    35   1      8.6699625063592212      19.496283599373896      1.7680980747661097
    36   1      10.047568904486932      18.566337990011363  8.4101477582329535e-06
    37   1      7.6380028685115979      17.847690430940588  8.4107934093480095e-06
    38   1      11.168846175742042       19.99914686488221      1.7680980645681554
    39   1      10.869872906780115      22.528519424239065      1.7680980462079587
    40   1      12.279049011480716      21.406028397826738  8.3986256290479726e-06
    41   1      9.7679792638069056      21.075484850759715  8.4003968859845832e-06
    42   1      13.384581832212691       22.82725147008696      1.7680980476227581
    43   1      13.018273052343709      25.297873546793511      1.7680980386140759
    44   1      14.440605030378348      24.277761696826442  8.3850334897838968e-06
    45   1      11.944303732724745      23.981781301212454  8.3839838749483053e-06
    46   1      2.7902643317713136      15.000000030970542  8.5752610045557911e-06
    47   1      4.0493727778035939      16.276322867415505      1.7680980911531416
    48   1      3.7476397637834422      18.839449193913559      1.7680980705953884
    49   1      5.1664621876737629      17.603298300038258  8.4424909168891726e-06
    50   1      2.6304889089109644      17.497105913137251  8.4794538311849274e-06
    51   1      6.2462356419535672      19.010348441006798      1.7680980862157325
    52   1       5.929683325346403      21.666419243908088      1.7680980559356041
    53   1      7.3102502985150437      20.546505059809217  8.4080422471571935e-06
    54   1      4.8424992962822406      20.217478047906219  8.4112274767303857e-06
    55   1      8.3822421371587019      22.097130379781284      1.7680980496172201
    56   1      8.0553212051874432      24.621623802339673      1.7680980408242413
    57   1       9.456742088255444      23.643041834063386  8.3852482586675282e-06
    58   1      7.0013744599351941      23.186970763995944  8.3894922171065414e-06
    59   1      10.537480064184921      25.033987596941827      1.7680980382316669
    60   1      2.3283978938338077      19.999146865292861  8.4070997356490889e-06
    61   1      3.4386007259888118      21.406028398267512      1.7680980555236956
    62   1      3.1038554480851879      23.981781301256216      1.7680980406300042
    63   1       4.544133547382275      22.827251470226074  8.3904537940024728e-06
    64   1       2.029424622093142      22.528519423648785  8.3884652838481779e-06
    65   1      5.6001567457863359      24.277761696767133      1.7680980420523393
    66   1      4.1778247675315283      25.297873546856842  8.3814363553292872e-06
    67   1        1.52288963691475      13.836231808344017      1.7680980140292781
    68   1      10.363337907160322      13.836231792913125  8.4066232483312066e-06
    69   1      17.510412172386985      10.503716419956636  8.5323657802443036e-06
    70   1      16.478452154070727      12.152309615782444      1.7680981278560002
    71   1      16.895771663823741      5.3783761575556976  8.5523013418420303e-06
    72   1      17.222692368262916      7.9028695909127684  8.5431463694771391e-06
    73   1      14.770133515852129      8.3335807833944386  8.5404790888525532e-06
    74   1      16.150700267742533      9.4534949412852995      1.7680981912769835
    75   1      15.841824837044904      6.8130292130839027      1.7680982064105217
    76   1      15.086685239583742      10.989651580719167  8.5247120171365245e-06
    77   1      12.588089262831364      11.160550837962685  8.5177552632710031e-06
    78   1      14.006911366647707      12.396701697594017      1.7680981657740038
    79   1      13.682949177145769      9.7825219820354121       1.768098189183922
    80   1      2.6304897261822258      12.502894119869985  8.5567468001972969e-06
    81   1      14.440607199444957      5.7222383371506966  8.5518792603170105e-06
    82   1       11.94430588960347      6.0182187166037213  8.5535298286453711e-06
    83   1      13.384583891893442      7.1727485710166681      1.7680982048840859
    84   1      13.018275277345849      4.7021264823565661      1.7680982117964694
    85   1      12.279050848300052      8.5939716316132149  8.5430304695631393e-06
    86   1      9.7679810233799458      8.9245151112914254  8.5439681025299118e-06
    87   1      11.168847679314732       10.00085315110811      1.7680981918680685
    88   1      10.869874915648248      7.4714805740706343      1.7680982051809668
    89   1      10.047570022147259      11.433662018688011  8.5142683078449631e-06
    90   1      7.6380038608202874      12.152309612353163  8.4841531996383378e-06
    91   1      8.6699638795348299      10.503716416349258      1.7680981887743377
    92   1      10.537482272501704      4.9660123939179259       1.768098212390526
    93   1      9.4567442127485268      6.3569581299690512  8.5530242021902271e-06
    94   1      7.0013765524785612      6.8130292131501786  8.5496962837239513e-06
    95   1      8.3822440837245491      7.9028695916656817      1.7680982015671469
    96   1      8.0553233791614716       5.378376157368236      1.7680982102486127
    97   1      7.3102519852394083       9.453494942485035  8.5346477751323266e-06
    98   1      4.8425008918451864      9.7825219820717333    8.53220616378385e-06
    99   1      6.2462369580630286      10.989651581545973      1.7680981800674407
   100   1      5.9296852308729218      8.3335807831141295       1.768098197537799
   101   1      5.1664630841992691      12.396701696964103  8.5089990541943165e-06
   102   1      11.470938003734638      12.502894114290774      1.7680981991988021
   103   1      3.7476409784719014      11.160550837022393      1.7680981716276423
   104   1      4.1778269926838991      4.7021264825550269  8.5540040916849188e-06
   105   1      5.6001589145596107      5.7222383372350825      1.7680982085554975
   106   1      4.5441356072330565      7.1727485712789205   8.547249558364223e-06
   107   1      2.0294266308212845      7.4714805735304681  8.5467938107324542e-06
   108   1      3.4386025642897531      8.5939716321263404      1.7680981993781619
   109   1      3.1038576047432014      6.0182187167423224      1.7680982095040314
   110   1      2.3283993917612467        10.0008531515151  8.5338838971484477e-06
   111   1      1.2071217284810158      11.433662001726558      1.7680981651464378
   112   1     0.92753273946783243      8.9245151164047254      1.7680982008449073
   113   1      1.6970339879045528      4.9660123943047587  8.5541659064986085e-06
   114   1     0.61629592824119372      6.3569581296021971      1.7680982089620252
   115   1      1.5228890940873179      16.163768201005269      5.3042772743254876
   116   1     0.12367474972963073      13.158481737567367      3.5361879319836551
   117   1      14.217051708402135      14.999999998677952      5.3042774478140959
   118   1      15.415796247800486      13.694614646405658      3.5361878052136002
   119   1      12.889821552940139      13.723677149284818      3.5361877923194256
   120   1        16.8438127972661      15.000000005145584      5.3042774409444249
   121   1      16.478451144566975      17.847690434382987      5.3042773687408467
   122   1     0.12367413992507405      16.841518500364316      3.5361878729358693
   123   1      15.415795780940128      16.305385312575304      3.5361877726593796
   124   1      1.2071206288259302      18.566337972492676      5.3042773754196464
   125   1     0.92753097820665797      21.075484855941742      5.3042773716745746
   126   1      17.510410782842452      19.496283603007399      3.5361877325423499
   127   1      8.9641230559336265      13.158481741581253      5.3042775503590427
   128   1      11.630712616321123      15.000000046803962      5.3042775123180075
   129   1      11.470937200995198      17.497105907716115      5.3042774356480997
   130   1       12.88982105736698      16.276322864943506      3.5361877543760887
   131   1      10.363337393610591      16.163768184166482      3.5361876662243197
   132   1      14.006910474667544      17.603298300707557      5.3042774130092454
   133   1      13.682947580434435      20.217478047929852      5.3042773817739315
   134   1      15.086683929874265      19.010348440186501      3.5361877446663068
   135   1      12.588088048859765      18.839449194910891      3.5361877301881006
   136   1      16.150698585454968      20.546505058634501      5.3042773787157449
   137   1      15.841822744819479      23.186970764030626      5.3042773601983457
   138   1      17.222690422025664       22.09713037907273      3.5361877054721411
   139   1      14.770131609828441      21.666419244273794       3.536187712611337
   140   1      0.6162938032742773      23.643041833727928      5.3042773556683764
   141   1      1.6970317793218066      25.033987597327428      3.5361876946300455
   142   1      16.895769489978338      24.621623802647356      3.5361876971899688
   143   1      4.0493732631330843      13.723677151717622      5.3042774428449073
   144   1      6.5753479574067208       13.69461464862707      5.3042774631853558
   145   1      6.5753475020339005      16.305385314792542      5.3042774306284874
   146   1      8.0033645125885897      15.000000005115158      3.5361877853006702
   147   1      5.3766034237197537      14.999999997159476      3.5361877892005724
   148   1      8.9641224027907835      16.841518504507118      5.3042774915970563
   149   1      8.6699625063592229      19.496283599373889      5.3042773886554198
   150   1      10.047568904486944      18.566337990011355      3.5361877240371205
   151   1      7.6380028685115811       17.84769043094057      3.5361877246829732
   152   1      11.168846175742043      19.999146864882228      5.3042773784574768
   153   1      10.869872906780108      22.528519424239068      5.3042773600973003
   154   1      12.279049011480724      21.406028397826741      3.5361877125149599
   155   1      9.7679792638068967      21.075484850759736       3.536187714286219
   156   1      13.384581832212691      22.827251470086949      5.3042773615120655
   157   1      13.018273052343696        25.2978735467935      5.3042773525034219
   158   1      14.440605030378345      24.277761696826442      3.5361876989228289
   159   1      11.944303732724741      23.981781301212479      3.5361876978732116
   160   1      2.7902643317720939      15.000000030970535       3.536187889150348
   161   1      4.0493727778035957      16.276322867415498      5.3042774050426873
   162   1      3.7476397637834244      18.839449193913573      5.3042773844847586
   163   1      5.1664621876737273      17.603298300038151      3.5361877563802828
   164   1      2.6304889089110595      17.497105913137343      3.5361877933431631
   165   1      6.2462356419535023      19.010348441006883       5.304277400105029
   166   1      5.9296833253463896      21.666419243908102      5.3042773698249341
   167   1      7.3102502985150375      20.546505059809217      3.5361877219315909
   168   1      4.8424992962822264      20.217478047906216      3.5361877251167821
   169   1      8.3822421371587019      22.097130379781273       5.304277363506567
   170   1      8.0553212051874379      24.621623802339666       5.304277354713574
   171   1      9.4567420882554476      23.643041834063396      3.5361876991375856
   172   1      7.0013744599352021      23.186970763995944      3.5361877033815561
   173   1      10.537480064184914      25.033987596941824      5.3042773521210256
   174   1      2.3283978938337975      19.999146865292872       3.536187720989056
   175   1      3.4386007259888136      21.406028398267512      5.3042773694130343
   176   1      3.1038554480851928       23.98178130125622      5.3042773545193223
   177   1      4.5441335473822786       22.82725147022607      3.5361877043431211
   178   1       2.029424622093134      22.528519423648778      3.5361877023546127
   179   1      5.6001567457863342      24.277761696767126      5.3042773559416618
   180   1      4.1778247675315283      25.297873546856863      3.5361876953256912
   181   1      1.5228896369147547      13.836231808344024      5.3042773279180704
   182   1       10.36333790716032      13.836231792913127      3.5361877205122725
   183   1      17.510412172386978      10.503716419956575      3.5361878462551166
   184   1       16.47845215407073       12.15230961578243      5.3042774417457226
   185   1      16.895771663823766      5.3783761575556959      3.5361878661906712
   186   1      17.222692368262923      7.9028695909127711      3.5361878570357046
   187   1      14.770133515852148      8.3335807833944582      3.5361878543684138
   188   1      16.150700267742515      9.4534949412852995       5.304277505166338
   189   1      15.841824837044891      6.8130292130839054      5.3042775202998484
   190   1       15.08668523958386      10.989651580719288      3.5361878386013368
   191   1      12.588089262831394      11.160550837962706      3.5361878316446256
   192   1      14.006911366647723      12.396701697593965      5.3042774796633694
   193   1      13.682949177145785      9.7825219820353926      5.3042775030732114
   194   1      2.6304897261823212      12.502894119869909       3.536187870636132
   195   1      14.440607199444964      5.7222383371506966       3.536187865768595
   196   1      11.944305889603482      6.0182187166037124      3.5361878674191609
   197   1      13.384583891893444      7.1727485710166681      5.3042775187734037
   198   1      13.018275277345845      4.7021264823565714      5.3042775256858041
   199   1      12.279050848300049      8.5939716316131918      3.5361878569198022
   200   1      9.7679810233799476      8.9245151112914218      3.5361878578574442
   201   1      11.168847679314734      10.000853151108107      5.3042775057573861
   202   1      10.869874915648248      7.4714805740706343      5.3042775190703004
   203   1      10.047570022147255      11.433662018688008      3.5361878281576797
   204   1      7.6380038608202732      12.152309612353191      3.5361877980427532
   205   1      8.6699638795348264      10.503716416349295      5.3042775026636635
   206   1      10.537482272501713      4.9660123939179242      5.3042775262798596
   207   1      9.4567442127485162      6.3569581299690467      3.5361878669135391
   208   1      7.0013765524785576      6.8130292131501662      3.5361878635856177
   209   1      8.3822440837245455      7.9028695916656799      5.3042775154564801
   210   1      8.0553233791614645      5.3783761573682325      5.3042775241379587
   211   1      7.3102519852394048      9.4534949424850279      3.5361878485371179
   212   1      4.8425008918451642      9.7825219820717564      3.5361878460954723
   213   1      6.2462369580629575      10.989651581545914      5.3042774939567332
   214   1      5.9296852308729129      8.3335807831141278      5.3042775114271201
   215   1      5.1664630841992407      12.396701696964186      3.5361878228884049
   216   1       11.47093800373459       12.50289411429082      5.3042775130881363
   217   1      3.7476409784718876       11.16055083702239      5.3042774855170212
   218   1      4.1778269926838991      4.7021264825550251      3.5361878678934211
   219   1      5.6001589145596027      5.7222383372350825      5.3042775224448304
   220   1      4.5441356072330548      7.1727485712789187      3.5361878611388895
   221   1      2.0294266308212823      7.4714805735304717      3.5361878606831483
   222   1      3.4386025642897531      8.5939716321263386       5.304277513267496
   223   1      3.1038576047432027      6.0182187167423207       5.304277523393365
   224   1      2.3283993917612422      10.000853151515091      3.5361878477732223
   225   1      1.2071217284810176       11.43366200172656      5.3042774790358305
   226   1     0.92753273946783232      8.9245151164047254      5.3042775147342605
   227   1      1.6970339879045588      4.9660123943047632      3.5361878680552397
   228   1     0.61629592824119173      6.3569581296021962      5.3042775228513674
