(written by ASE)

160 atoms
1 atom types

0.0      12.912523111615782  xlo xhi
0.0                      30  ylo yhi
0.0      7.1646288111473151  zlo zhi

Atoms # atomic

     1   1      12.897321081186307       18.51874492459233      1.3433681343253381
     2   1      11.822564163312832      16.524920128126027      3.1345253520749212
     3   1      7.9374829826490547      17.503527969488875      1.3433681298999498
     4   1      9.3354492234184185      16.269567344788953      3.1345253281344068
     5   1      6.7978661782684693       16.19619309995629       3.134525340214636
     6   1      10.538195800755306      17.692834919222918      1.3433681252143366
     7   1      9.9996822294314018      20.391069174960951      1.3433681428387707
     8   1      11.437745512828091      19.319083055842651      3.1345253473428283
     9   1      8.9860486768237049      18.892771705593962      3.1345253428583679
    10   1      12.448936680014789      21.002266424417172      1.3433681513246603
    11   1      11.951315897073208      23.547082107032629      1.3433681581787684
    12   1      10.963995625204856      21.980029102311036      3.1345253566585205
    13   1    0.037234001877563899      25.016641636944861       3.134525362167448
    14   1      2.8791876771186904      16.269567346504068      1.3433681215491582
    15   1      5.3663025917987381      16.524920128563455      1.3433681215285764
    16   1      4.9814839604747316      19.319083055308639      1.3433681408337179
    17   1       6.441059523464137       18.51874493913909      3.1345253462362277
    18   1      4.0819342454783403       17.69283491682657      3.1345253357770493
    19   1      7.4857224642727198      19.980153749190723      1.3433681470417853
    20   1      6.9980509486725087      22.525668351855131      1.3433681560321984
    21   1      8.4964737452929739      21.492706593659506      3.1345253556411925
    22   1      5.9926751266534204      21.002266420061435      3.1345253550934618
    23   1        9.47814058995694      23.039623624775547      1.3433681569721017
    24   1      10.470880850867605      24.552445748288172      3.1345253614750477
    25   1      7.9958362818819477      24.083665976025593      3.1345253617163591
    26   1     0.34160461015877308      16.196193108343529      1.3433680999734001
    27   1      1.4812214233427203      17.503527974248538      3.1345253496818763
    28   1      2.5297871194044736      18.892771705937957      1.3433681343772381
    29   1        2.04021218998066       21.49270659460462      1.3433681522873968
    30   1      3.5434206700685262       20.39106917722636      3.1345253471888355
    31   1       1.029460911689372      19.980153750105547       3.134525352176242
    32   1      4.5077340668472017      21.980029104442515      1.3433681536744511
    33   1      4.0146192958447084      24.552445748951211      1.3433681587863249
    34   1      5.4950543407209649      23.547082107270548      3.1345253611908928
    35   1      3.0218790347779305      23.039623626112963      3.1345253598578098
    36   1        6.49349555858453       25.01664163594538       1.343368159543977
    37   1     0.54178939147570315      22.525668352473314      3.1345253588376396
    38   1      1.5395747255275487      24.083665978295898      1.3433681587594448
    39   1      11.822564073625903      13.475079795024623      3.1345253201405856
    40   1      10.794910174511362      14.999999989303181      1.3433681109185911
    41   1      10.963995439147137      8.0199708639559351      3.1345252768257401
    42   1      11.951315694350265      6.4529178616397935      1.3433680687820306
    43   1      11.437745369791536      10.680916904479989      3.1345252917634459
    44   1      8.9860485480276306      11.107228270221293      3.1345252959706507
    45   1      10.538195680955045      12.307165051085471      1.3433680940001105
    46   1      9.9996820480537814      9.6089307884728683      1.3433680841375952
    47   1      9.3354491507583983      13.730432661915433      3.1345253101636579
    48   1      6.7978660617528073      13.803806909205598      3.1345253200839873
    49   1      7.9773421726899585      14.999999992274928      1.3433681062414018
    50   1      7.9374828810202196      12.496472021503951      1.3433680874648921
    51   1      10.470880644623479      5.4475542164015041      3.1345252711373064
    52   1      7.9958360765263059      5.9163339906484351      3.1345252710437927
    53   1      9.4781403915458284      6.9603763402824406      1.3433680702144306
    54   1      8.4964735581291979      8.5072933785955218      3.1345252780963997
    55   1      5.9926749499835061      8.9977335601349413      3.1345252789965743
    56   1      7.4857223136368098      10.019846236337473      1.3433680794991125
    57   1      6.9980507521202311      7.4743316196259357      1.3433680713377749
    58   1      6.4410594168220818      11.481255089030714      3.1345252943574637
    59   1      4.0819341243875202      12.307165048428706      3.1345253047874464
    60   1      5.3663025326329921      13.475079795120031      1.3433680887860502
    61   1      4.9814838103173136      10.680916903742938      1.3433680850896905
    62   1      4.3386486185753075      14.999999992721119      3.1345253195573486
    63   1      1.5210806169949151      14.999999979436833      3.1345253343225337
    64   1      2.8791875856908806      13.730432663483727      1.3433681035251677
    65   1      6.4934953513556559      4.9833583311872607      1.3433680675552373
    66   1      5.4950541392054024       6.452917862523301      3.1345252716753751
    67   1      3.0218788348337271      6.9603763398199749       3.134525273111759
    68   1      4.5077338853717812      8.0199708654030708      1.3433680737643887
    69   1      4.0146190889093836      5.4475542162631969      1.3433680683640667
    70   1      3.5434204947584611      9.6089307893232334      3.1345252885349311
    71   1      1.0294607545782815      10.019846236551945      3.1345252847863421
    72   1        2.52978699282452      11.107228269958648      1.3433680873489462
    73   1      2.0402120015497935      8.5072933775572572      1.3433680747993597
    74   1      1.4812213283421789      12.496472025166572      3.1345253076861703
    75   1     0.34160451788777108       13.80380691716738      1.3433680790859632
    76   1      12.897320971246423      11.481255074609987      1.3433680822257361
    77   1    0.037233795055364609       4.983358330611285      3.1345252703117277
    78   1      1.5395745210682585       5.916333990071843      1.3433680681940525
    79   1     0.54178919743164322      7.4743316183579829      3.1345252742649232
    80   1      12.448936508507673      8.9977335635715612      1.3433680752885651
    81   1      12.897321081186638      18.518744924589512      4.9256825398978954
    82   1      11.822564163311824      16.524920128126098      6.7168397576517336
    83   1      7.9374829826485387      17.503527969489156      4.9256825354828004
    84   1      9.3354492234154911      16.269567344789539       6.716839733707614
    85   1       6.797866178258511       16.19619309994491      6.7168397457880431
    86   1      10.538195800755906      17.692834919221273      4.9256825307882899
    87   1      9.9996822294306309      20.391069174961345       4.925682548408953
    88   1      11.437745512830148      19.319083055843734      6.7168397529152406
    89   1      8.9860486768277088      18.892771705601476      6.7168397484316449
    90   1       12.44893668001491      21.002266424415833      4.9256825568975948
    91   1         11.951315897073      23.547082107032956      4.9256825637524528
    92   1      10.963995625205126      21.980029102310596      6.7168397622314107
    93   1    0.037234001878388163      25.016641636944371      6.7168397677413729
    94   1      2.8791876771168599      16.269567346504445      4.9256825271238478
    95   1      5.3663025917979539      16.524920128563533      4.9256825270972042
    96   1      4.9814839604758889      19.319083055309406      4.9256825464095586
    97   1      6.4410595234648618      18.518744939134564      6.7168397518103973
    98   1      4.0819342454793537       17.69283491682403      6.7168397413505048
    99   1      7.4857224642724249      19.980153749190777      4.9256825526160259
   100   1      6.9980509486724864       22.52566835185511       4.925682561607112
   101   1      8.4964737452934127      21.492706593660223       6.716839761214846
   102   1      5.9926751266536806      21.002266420059154      6.7168397606675221
   103   1      9.4781405899565847      23.039623624776215      4.9256825625459886
   104   1      10.470880850867889      24.552445748288271      6.7168397670492928
   105   1       7.995836281881826      24.083665976026449      6.7168397672905833
   106   1     0.34160461015244653      16.196193108336413      4.9256825055475426
   107   1      1.4812214233414696      17.503527974248854       6.716839755249703
   108   1      2.5297871194069503       18.89277170594271       4.925682539951671
   109   1      2.0402121899808927      21.492706594605142      4.9256825578612382
   110   1      3.5434206700671806      20.391069177227262      6.7168397527647477
   111   1      1.0294609116887248      19.980153750105629      6.7168397577494829
   112   1      4.5077340668473127       21.98002910444227      4.9256825592496076
   113   1      4.0146192958448337      24.552445748951232      4.9256825643582927
   114   1      5.4950543407204364      23.547082107271592      6.7168397667645383
   115   1      3.0218790347772519      23.039623626114587      6.7168397654314491
   116   1      6.4934955585848924      25.016641635945152      4.9256825651167997
   117   1     0.54178939147567762      22.525668352473286      6.7168397644107243
   118   1      1.5395747255275298      24.083665978296239      4.9256825643318125
   119   1      11.822564073626936      13.475079795024703      6.7168397257110763
   120   1      10.794910174511342      14.999999989302124      4.9256825164922518
   121   1      10.963995439146965      8.0199708639555762      6.7168396824003072
   122   1       11.95131569435059      6.4529178616403833      4.9256824743556766
   123   1      11.437745369789567      10.680916904481146      6.7168396973384707
   124   1       8.986048548023664      11.107228270228836      6.7168397015448198
   125   1       10.53819568095442      12.307165051083892      4.9256824995734751
   126   1      9.9996820480546145      9.6089307884734207      4.9256824897147427
   127   1      9.3354491507613595       13.73043266191603      6.7168397157379705
   128   1      6.7978660617627549      13.803806909194194      6.7168397256578398
   129   1      7.9773421726900029      14.999999992274777      4.9256825118150314
   130   1      7.9374828810209488      12.496472021504223      4.9256824930293197
   131   1      10.470880644623289      5.4475542164014819      6.7168396767099789
   132   1      7.9958360765263086      5.9163339906489369      6.7168396766166563
   133   1      9.4781403915462565      6.9603763402834149       4.925682475788105
   134   1       8.496473558128864      8.5072933785963762      6.7168396836701554
   135   1      5.9926749499833383      8.9977335601327972      6.7168396845697886
   136   1        7.48572231363719      10.019846236337512      4.9256824850720724
   137   1       6.998050752120248      7.4743316196259277      4.9256824769105867
   138   1      6.4410594168215116      11.481255089026284      6.7168396999304569
   139   1      4.0819341243865725      12.307165048426134      6.7168397103613087
   140   1      5.3663025326337221      13.475079795120108      4.9256824943647857
   141   1      4.9814838103160444      10.680916903743629      4.9256824906613206
   142   1      4.3386486185753181       14.99999999271941      6.7168397251310017
   143   1      1.5210806169948878      14.999999979436845      6.7168397398962005
   144   1      2.8791875856926987      13.730432663484089      4.9256825090979346
   145   1      6.4934953513551488       4.983358331186964       4.925682473129215
   146   1      5.4950541392056831      6.4529178625236963      6.7168396772490278
   147   1       3.021878834834256       6.960376339820959      6.7168396786855098
   148   1      4.5077338853716249      8.0199708654028168      4.9256824793369143
   149   1      4.0146190889092033      5.4475542162632165       4.925682473938509
   150   1      3.5434204947597077       9.608930789323896      6.7168396941064143
   151   1      1.0294607545788008      10.019846236552057      6.7168396903603789
   152   1      2.5297869928220118      11.107228269963358      4.9256824929219603
   153   1      2.0402120015495218      8.5072933775577209      4.9256824803730144
   154   1      1.4812213283432556      12.496472025166877      6.7168397132655713
   155   1     0.34160451789398372      13.803806917160191      4.9256824846590774
   156   1      12.897320971245978      11.481255074607187      4.9256824878003567
   157   1    0.037233795054851061      4.9833583306109963       6.716839675884942
   158   1      1.5395745210683127      5.9163339900723173      4.9256824737685099
   159   1     0.54178919743168408      7.4743316183579545      6.7168396798393228
   160   1      12.448936508507511      8.9977335635701436      4.9256824808628599
