(written by ASE)

240 atoms
1 atom types

0.0      19.287828409670595  xlo xhi
0.0                      30  ylo yhi
0.0      7.1646288111473151  zlo zhi

Atoms # atomic

     1   1      6.2362246948184117      17.187151593433729      1.3433679051451262
     2   1      5.2827362982723987      14.999999999990772      3.1345251079263154
     3   1      6.9867511560394933      18.716020170049678       3.134525107719853
     4   1      1.7736360486379517      15.000000000002114      1.3433679051380527
     5   1      4.0815334418218505      16.178186447518495      1.3433679051238427
     6   1      2.9173453550588015      18.397800769685411       1.343367905136271
     7   1      4.6137874271275754      17.792278403764907      3.1345251078008194
     8   1      2.4057831065750657      16.493546001206774      3.1345251079293277
     9   1      5.2618119212844956      19.500891646193914      1.3433679051442271
    10   1      4.2727183308418244      21.848039284853478      1.3433679051420913
    11   1      5.9632759220040379      21.150269596137665       3.134525107911931
    12   1      3.5813795146684861      20.109364881426636      3.1345251078286691
    13   1      6.6303314268498719      22.837060360907028       1.343367905143368
    14   1      5.6272287311944762      25.169447799525127      1.3433679051370451
    15   1      4.9392671990674515      23.541161942526532      3.1345251079184093
    16   1      17.559318284854861      16.243518889758185      1.3433679051616241
    17   1      19.220611205406723      15.000000000002718      3.1345251079262781
    18   1      16.524779935906089      14.999999999939952      3.1345251079077578
    19   1     0.61145256696519701       17.10722709099262       1.343367905145501
    20   1      18.960817272595328      19.633989504430122      1.3433679051428853
    21   1      1.2692264694994175      18.886935586526715      3.1345251079861556
    22   1      18.292649466531685      17.791432824266405      3.1345251079314211
    23   1      1.9408324916966433      20.750077301082865      1.3433679051381431
    24   1     0.95321556033738697      23.163764052041341      1.3433679051406773
    25   1      2.6058816830117792      22.485132355673958      3.1345251079329564
    26   1     0.29926400180591867      21.390104447830517       3.134525107979218
    27   1      3.2784519573204594       24.23958362237228      1.3433679051337744
    28   1      1.6145410141698378      24.825567002575216      3.1345251079149579
    29   1      14.926650503078234      14.999999999980812      1.3433679051417553
    30   1      14.257701631924743        17.7922784037744       1.343367905148565
    31   1      15.880138899485594      17.187151593768885      3.1345251078975127
    32   1      13.725447646654217      16.178186447556627      3.1345251079506036
    33   1      16.630665360870914      18.716020170062375      1.3433679051554472
    34   1      15.607190126842958      21.150269596141126      1.3433679051421081
    35   1      17.292822512245987      20.360818781322575      3.1345251079251044
    36   1      14.905726125988629      19.500891646313161      3.1345251079124341
    37   1      17.941495834354217      22.125562758188472      1.3433679051419944
    38   1      16.941167179441081      24.548797532952275      1.3433679051417413
    39   1      18.588312297920282      23.860052064726382      3.1345251078948624
    40   1      16.274245631696008      22.837060360872403      3.1345251079072898
    41   1      9.5766970005761411      15.000000000036572      1.3433679051416096
    42   1      11.417550253473324      15.000000000000195      3.1345251079344933
    43   1      12.049697311410505       16.49354600121822      1.3433679051407534
    44   1      10.913140674462422      18.886935586604956      1.3433679051378742
    45   1      12.561259559989981      18.397800769698392      3.1345251079932512
    46   1       10.25536677180931      17.107227090999771      3.1345251079302354
    47   1      13.225293719484789      20.109364881435443      1.3433679051475464
    48   1      12.249795887864609      22.485132355686311      1.3433679051402452
    49   1      13.916632535672742      21.848039284902583      3.1345251079226291
    50   1      11.584746696594268      20.750077301058298      3.1345251079712955
    51   1      14.583181403889968      23.541161942553082      1.3433679051417355
    52   1      15.271142936030676      25.169447799506237      3.1345251079616814
    53   1      12.922366162148776      24.239583622382597      3.1345251079623848
    54   1      6.8808657310736354      14.999999999336664       1.343367905149494
    55   1      7.9154040800280905      16.243518889758473      3.1345251075728497
    56   1      8.6487352618537354      17.791432824606538      1.3433679051403455
    57   1      7.6489083074576563      20.360818781517587      1.3433679051400107
    58   1      9.3169030677424729      19.633989504457805      3.1345251079245986
    59   1      9.9431782067024876      21.390104447869607      1.3433679051370364
    60   1      8.9443980930902036      23.860052064752857      1.3433679051442691
    61   1      10.597129765158462      23.163764052056759      3.1345251079219199
    62   1      8.2975816294954274      22.125562758212229      3.1345251079180416
    63   1      11.258455219028296      24.825567002576626      1.3433679051415068
    64   1      7.2972529746278703      24.548797532937492      3.1345251079317302
    65   1      18.292649466513978      12.208567175775203      3.1345251079262639
    66   1      18.960817272551132      10.366010495515162      1.3433679051430494
    67   1      17.559318284857934      13.756481110248259      1.3433679051164003
    68   1      18.588312297916989       6.139947935277128      3.1345251079052914
    69   1      16.274245631696083      7.1629396391323645      3.1345251079265051
    70   1      17.941495834315248      7.8744372417711004      1.3433679051411256
    71   1      16.941167179446531      5.4512024670541672      1.3433679051412875
    72   1      17.292822512238374      9.6391812187055841      3.1345251079399139
    73   1      14.905726125968584      10.499108353665438      3.1345251079325593
    74   1      16.630665360879696      11.283979829945729      1.3433679051296386
    75   1       15.60719012683872      8.8497304038682767      1.3433679051399852
    76   1      15.880138899467353      12.812848406214336      3.1345251079418786
    77   1      13.725447646657999      13.821813552439005      3.1345251079875363
    78   1      14.257701631986759      12.207721596261393      1.3433679051323992
    79   1      15.271142936030659      4.8305522004970118      3.1345251079449197
    80   1      12.922366162147672      5.7604163776169743      3.1345251079439649
    81   1      14.583181403890515      6.4588380574656572      1.3433679051402083
    82   1      13.916632535671219       8.151960715091894      3.1345251079169323
    83   1      11.584746696601721      9.2499226989457419      3.1345251078855445
    84   1      13.225293719521735      9.8906351185885484      1.3433679051348717
    85   1      12.249795887820129      7.5148676443441831      1.3433679051402545
    86   1      12.561259560003132      11.602199230300382      3.1345251078691279
    87   1      10.255366771812463      12.892772908997923      3.1345251079015282
    88   1      12.049697311460514      13.506453998831208      1.3433679051409237
    89   1      10.913140674193279      11.113064413575769      1.3433679051458212
    90   1      11.258455219005938      5.1744329974388767      1.3433679051406775
    91   1      10.597129765156167      6.8362359479426118      3.1345251079396572
    92   1      8.2975816294912885      7.8744372417843582      3.1345251079328844
    93   1      9.9431782065719556      8.6098955522185445      1.3433679051437437
    94   1      8.9443980930870381      6.1399479353008646      1.3433679051402134
    95   1        9.31690306773576      10.366010495540454      3.1345251079195728
    96   1      6.9867511560452202      11.283979829940773      3.1345251081304633
    97   1      8.6487352615141351      12.208567176115361      1.3433679051406973
    98   1       7.648908307352281      9.6391812188967716      1.3433679051388963
    99   1      7.9154040800165832      13.756481110252253      3.1345251082886918
   100   1      6.2362246944609803      12.812848405881038      1.3433679051429395
   101   1      7.2972529746312302      5.4512024670647499       3.134525107919047
   102   1      4.9392671990718204      6.4588380574782693      3.1345251079396372
   103   1      6.6303314268706339      7.1629396391634259      1.3433679051390985
   104   1      5.6272287311959479      4.8305522005130639      1.3433679051419987
   105   1      5.9632759220021043      8.8497304038630578       3.134525107937046
   106   1      3.5813795146703908      9.8906351185739805      3.1345251080220917
   107   1      5.2618119210010095      10.499108353546346      1.3433679051435521
   108   1      4.2727183308145316      8.1519607150360258      1.3433679051408698
   109   1      4.6137874271223192       12.20772159623793      3.1345251080563439
   110   1      2.4057831065727817      13.506453998793084      3.1345251079267857
   111   1      4.0815334418185323      13.821813552400922      1.3433679051227634
   112   1      2.9173453552634028      11.602199230287198      1.3433679051438832
   113   1       1.614541014161788      5.1744329974225067      3.1345251079219527
   114   1      3.2784519573141297      5.7604163776103592      1.3433679051423388
   115   1      2.6058816830088767      7.5148676443254683      3.1345251079578942
   116   1     0.29926400179822177      8.6098955521741161      3.1345251078912963
   117   1      1.9408324918214002      9.2499226989660652      1.3433679051430023
   118   1     0.95321556034186816      6.8362359479610735      1.3433679051405281
   119   1      1.2692264694811537      11.113064413483498      3.1345251078667986
   120   1     0.61145256698473949      12.892772908991283      1.3433679051468093
   121   1      6.2362246944623516      17.187151594174086      4.9256823107104291
   122   1      5.2827362983160153      14.999999999991527      6.7168395135029018
   123   1      6.9867511560428612      18.716020170044366      6.7168395137093757
   124   1      1.7736360486387752      14.999999999998348      4.9256823107174919
   125   1      4.0815334418159015      16.178186447601266      4.9256823107317018
   126   1      2.9173453552618769       18.39780076971164      4.9256823107193055
   127   1       4.613787427136999      17.792278403774329      6.7168395136284067
   128   1      2.4057831065376454      16.493546001224537      6.7168395134998811
   129   1      5.2618119210074052      19.500891646442234      4.9256823107113519
   130   1      4.2727183308326664      21.848039284956897       4.925682310713503
   131   1      5.9632759220028424      21.150269596134923      6.7168395135173231
   132   1      3.5813795146733827      20.109364881429073      6.7168395136005801
   133   1      6.6303314268724325      22.837060360831298      4.9256823107122312
   134   1      5.6272287311973042      25.169447799483038      4.9256823107185559
   135   1      4.9392671990759371      23.541161942517562      6.7168395135108518
   136   1      17.559318284869029      16.243518889751062      4.9256823106939294
   137   1      19.220611205399589      14.999999999998154      6.7168395135029275
   138   1      16.524779935898536      15.000000000018604       6.716839513521438
   139   1     0.61145256698534389       17.10722709100801      4.9256823107100542
   140   1      18.960817272557193      19.633989504487417      4.9256823107126948
   141   1      1.2692264694819384      18.886935586525855      6.7168395134430785
   142   1      18.292649466517158      17.791432824222522      6.7168395134977832
   143   1      1.9408324918309787      20.750077301028181      4.9256823107174466
   144   1     0.95321556030556742      23.163764052073414      4.9256823107149215
   145   1      2.6058816830107019      22.485132355675219      6.7168395134962982
   146   1      0.2992640017970768      21.390104447827877      6.7168395134500312
   147   1      3.2784519573060082      24.239583622392317      4.9256823107218306
   148   1      1.6145410141581769      24.825567002579128      6.7168395135143051
   149   1       14.92665050318079      15.000000000009665      4.9256823107138068
   150   1      14.257701632005176      17.792278403764684      4.9256823107070034
   151   1      15.880138899466031      17.187151593818328      6.7168395135316983
   152   1      13.725447646654917      16.178186447562037      6.7168395134785959
   153   1      16.630665360883818      18.716020170036003      4.9256823107001173
   154   1      15.607190126833984      21.150269596131444      4.9256823107134764
   155   1      17.292822512240754      20.360818781293375       6.716839513504123
   156   1      14.905726125970896      19.500891646329336      6.7168395135167991
   157   1      17.941495834302614      22.125562758239454      4.9256823107136025
   158   1      16.941167179492258      24.548797532919792      4.9256823107138556
   159   1      18.588312297915916      23.860052064722563      6.7168395135343957
   160   1      16.274245631697106      22.837060360866417      6.7168395135219647
   161   1      9.5766970005595535        14.9999999999654      4.9256823107139383
   162   1      11.417550253474003      15.000000000000012      6.7168395134947083
   163   1      12.049697311369803      16.493546001215059      4.9256823107148042
   164   1      10.913140674191409      18.886935586450381      4.9256823107176961
   165   1      12.561259560001679      18.397800769700019      6.7168395134359704
   166   1      10.255366771811186      17.107227091000535      6.7168395134989725
   167   1      13.225293719527913      20.109364881421541      4.9256823107080363
   168   1      12.249795887828471      22.485132355664852      4.9256823107153469
   169   1       13.91663253567248      21.848039284909117       6.716839513506617
   170   1      11.584746696603899      20.750077301054571      6.7168395134579466
   171   1      14.583181403924305       23.54116194249228      4.9256823107138699
   172   1       15.27114293603249      25.169447799502485      6.7168395134675789
   173   1      12.922366162148334      24.239583622383773      6.7168395134668746
   174   1      6.8808657310603847      15.000000000586157      4.9256823107060432
   175   1      7.9154040800303695      16.243518889755613      6.7168395138563604
   176   1      8.6487352615239494       17.79143282388123       4.925682310715203
   177   1      7.6489083073598794      20.360818781100818      4.9256823107155601
   178   1      9.3169030677416238       19.63398950446129      6.7168395135046302
   179   1      9.9431782065712913      21.390104447790112      4.9256823107185577
   180   1       8.944398093074998      23.860052064696905      4.9256823107113323
   181   1      10.597129765155019      23.163764052059282      6.7168395135073364
   182   1      8.2975816294907236      22.125562758216194      6.7168395135112151
   183   1      11.258455218969855      24.825567002578993      4.9256823107140972
   184   1      7.2972529746342261        24.5487975329346      6.7168395134975309
   185   1      18.292649466542329      12.208567175727021      6.7168395135029364
   186   1      18.960817272598209      10.366010495568547      4.9256823107124754
   187   1      17.559318284852232      13.756481110254263      4.9256823107391474
   188   1      18.588312297917472      6.1399479352733826       6.716839513523861
   189   1      16.274245631695582      7.1629396391285489      6.7168395135026495
   190   1      17.941495834340454      7.8744372418004938      4.9256823107143761
   191   1      16.941167179485028      5.4512024670739478      4.9256823107142038
   192   1      17.292822512245351      9.6391812186831629      6.7168395134892656
   193   1      14.905726125985691      10.499108353680811      6.7168395134966072
   194   1      16.630665360882471       11.28397982994464      4.9256823107258851
   195   1       15.60719012683648      8.8497304038614768      4.9256823107155219
   196   1      15.880138899493669      12.812848406258134      6.7168395134873027
   197   1      13.725447646659731      13.821813552443704      6.7168395134416459
   198   1      14.257701631935557      12.207721596201527      4.9256823107231336
   199   1      15.271142936030648      4.8305522004949362      6.7168395134842305
   200   1      12.922366162147982      5.7604163776179194       6.716839513485187
   201   1      14.583181403922277      6.4588380574895412      4.9256823107152838
   202   1      13.916632535672974      8.1519607150985962      6.7168395135122312
   203   1       11.58474669659417      9.2499226989422088      6.7168395135436132
   204   1      13.225293719490834      9.8906351185564194      4.9256823107206378
   205   1      12.249795887870672      7.5148676443061397      4.9256823107152421
   206   1      12.561259559988001      11.602199230301887      6.7168395135600454
   207   1      10.255366771812119       12.89277290899922      6.7168395135276713
   208   1      12.049697311317848      13.506453998734967      4.9256823107146248
   209   1      10.913140674453647      11.113064413373303      4.9256823107096972
   210   1      11.258455218991136       5.174432997406738      4.9256823107148149
   211   1      10.597129765156085      6.8362359479427113      6.7168395134894912
   212   1      8.2975816294938891      7.8744372417877084      6.7168395134962662
   213   1      9.9431782067011092      8.6098955521231417      4.9256823107117595
   214   1      8.9443980930772273        6.13994793525048      4.9256823107152741
   215   1      9.3169030677408013      10.366010495544838      6.7168395135096022
   216   1      6.9867511560481752      11.283979829945267        6.71683951329873
   217   1      8.6487352618721935      12.208567175385706      4.9256823107148406
   218   1      7.6489083074594468      9.6391812184944197      4.9256823107166294
   219   1      7.9154040800177601      13.756481110255082       6.716839513140517
   220   1      6.2362246948297386      12.812848406611986      4.9256823107125847
   221   1      7.2972529746303234      5.4512024670633323      6.7168395135101013
   222   1      4.9392671990706374      6.4588380574757203      6.7168395134895089
   223   1      6.6303314268506046      7.1629396390969822      4.9256823107163985
   224   1      5.6272287311954825      4.8305522004783414      4.9256823107134844
   225   1      5.9632759220019596      8.8497304038666886      6.7168395134921202
   226   1      3.5813795146717937      9.8906351185697137       6.716839513407078
   227   1      5.2618119212797021      10.499108353793574      4.9256823107119629
   228   1      4.2727183308591545      8.1519607151531215      4.9256823107146257
   229   1      4.6137874271241692      12.207721596225094      6.7168395133728511
   230   1      2.4057831065320165      13.506453998771111      6.7168395135024186
   231   1       4.081533441829384      13.821813552482878      4.9256823107327676
   232   1      2.9173453550575239      11.602199230313703      4.9256823107116388
   233   1       1.614541014164266      5.1744329974217846      6.7168395135071997
   234   1      3.2784519573109372      5.7604163776227928      4.9256823107131504
   235   1       2.605881683011285      7.5148676443228961      6.7168395134712586
   236   1     0.29926400180443469      8.6098955521662468      6.7168395135378631
   237   1      1.9408324917038324      9.2499226989200736      4.9256823107125056
   238   1     0.95321556029969512      6.8362359479229218      4.9256823107149703
   239   1      1.2692264694970161      11.113064413462835      6.7168395135623777
   240   1     0.61145256696861316      12.892772909006167      4.9256823107087362
