(written by ASE)

180 atoms
1 atom types

0.0      14.774517039936553  xlo xhi
0.0                      30  ylo yhi
0.0      7.1646288111473151  zlo zhi

Atoms # atomic

     1   1      6.2671663458763662      18.243615127017861 -1.1637813538438009e-06
     2   1      5.8949151868564229      16.522905895302518        1.79115602924416
     3   1      7.1732608185446747      21.832184347961714 -1.1361511010653071e-06
     4   1      6.7633040016933093      19.991606001728531      1.7911560493475545
     5   1      3.9502837926498309      16.899990820187554 -1.1659109626754153e-06
     6   1      2.8491491901680748      19.156948269954075 -1.1545216352972498e-06
     7   1      4.5399422847392676      18.655446461064138       1.791156044772652
     8   1      2.4177753048196653      17.169728473156241      1.7911560390591275
     9   1      5.0174966634581741      20.485106842497078 -1.1450763199595774e-06
    10   1       3.699554847237458      22.718515474646779 -1.1346115789875978e-06
    11   1       5.435551647090298      22.280749418235306      1.7911560671328195
    12   1      3.2583275708461148      20.921078836292999      1.7911560599241323
    13   1      5.8648956208013594      24.077959467566664 -1.1324293713568333e-06
    14   1      4.1238406110770862      24.497159500775169      1.7911560704459712
    15   1      13.282173740142831      16.522905901758733 -1.1742701826137721e-06
    16   1     0.82066935636991944      17.722337806541411 -1.1629559117709429e-06
    17   1      14.150562519532814      19.991605960167732 -1.1534950401619987e-06
    18   1      1.1068227912387205      19.503431435035562      1.7911560486921483
    19   1      13.654424862777057      18.243615099270581       1.791156039468808
    20   1      1.5145271210595146      21.370703043932391 -1.1380959099403879e-06
    21   1     0.20409140632449374      23.642282432116389 -1.1325077462629024e-06
    22   1      1.9449694421330985      23.160700393534736      1.7911560696941224
    23   1      14.560519340963948      21.832184319748244      1.7911560666794808
    24   1      2.3880517489823894      24.885764671038437 -1.1321432636355399e-06
    25   1      9.8050337743553513      17.169728487016037 -1.1638880047985408e-06
    26   1      11.337542298415396      16.899990844006254      1.7911560371026012
    27   1      11.927200799082231      18.655446468747332 -1.1581176264656648e-06
    28   1      10.645586094394984       20.92107885246822 -1.1428079478166196e-06
    29   1      12.404755185883333      20.485106829131137       1.791156057814757
    30   1      10.236407702389881      19.156948308066529      1.7911560483660527
    31   1       12.82281017065853      22.280749412108715 -1.1355628497715655e-06
    32   1      11.511099141738395      24.497159511665373 -1.1321993829518882e-06
    33   1      13.252154151135571      24.077959462810785      1.7911560704513403
    34   1      11.086813371907038       22.71851549042648      1.7911560682674377
    35   1      8.2079278596475671      17.722337813721929      1.7911560401033935
    36   1      8.4940813125232459      19.503431477586972 -1.1541881575193559e-06
    37   1      8.9017856442448426      21.370703075607146      1.7911560647052369
    38   1      9.3322279633051188      23.160700419265559  -1.133014588379349e-06
    39   1      9.7753102770770859      24.885764690032062      1.7911560707777865
    40   1      7.5913499242866065      23.642282460542088      1.7911560702401832
    41   1     0.25437791657010012      16.160747975839204      1.7911560393193553
    42   1      7.6416364168584954      16.160748005088578 -1.1638705324542329e-06
    43   1      14.150563145899511      10.008393885440295 -1.2221873545351126e-06
    44   1      13.282173685027944      13.477094305941337 -1.2019117584402026e-06
    45   1      13.654425267902758      11.756384689437727      1.7911559902370147
    46   1      12.837309228795833      15.000000341534065      1.7911560147831194
    47   1      11.511099956330995      5.5028405668511899 -1.2424115642045169e-06
    48   1        13.2521549534657      5.9220405835209702      1.7911559604690526
    49   1      12.822810919297748       7.719250616174917 -1.2392965916591934e-06
    50   1      10.645586759618636      9.0789212622322619 -1.2324190683429604e-06
    51   1       12.40475576758806      9.5148931542031114      1.7911559723969173
    52   1      11.086814146702316      7.2814845971049786      1.7911559624916418
    53   1      11.927201181514508      11.344553611732261 -1.2176989341062329e-06
    54   1      9.8050340259367932      12.830271725553128  -1.212166234884354e-06
    55   1      11.337542611177627      13.100009369040722      1.7911559923552676
    56   1      10.236408184518101       10.84305185083578      1.7911559813800075
    57   1      11.069710110553551      15.000000146513321 -1.1880794052293929e-06
    58   1      9.2475510458202521      15.000000059605064      1.7911560147361754
    59   1      9.7753111120411837      5.1142353755641707      1.7911559601906302
    60   1      9.3322287632669845      6.8392996512532118 -1.2417386743964815e-06
    61   1      7.1732615442551833      8.1678156656893783 -1.2389740939860066e-06
    62   1      8.9017863675472046      8.6292969736288327      1.7911559657366616
    63   1      7.5913507391472015      6.3577175732680518      1.7911559604201137
    64   1      8.4940819090588153      10.496568549087991 -1.2216871380663695e-06
    65   1      6.2671667468618972      11.756384718269979 -1.2130095674611397e-06
    66   1      8.2079282034078354      12.277662217115473      1.7911559896471059
    67   1      6.7633046271122357      10.008393924756255      1.7911559805369119
    68   1       7.641636389842386      13.839252068426793 -1.2128265860783806e-06
    69   1      5.4500507024064495      15.000000220616988 -1.1890706918290973e-06
    70   1      5.8949151942071021      13.477094296013082      1.7911560017711334
    71   1        5.86489644507561      5.9220405904839515 -1.2425474073926454e-06
    72   1      3.6995556332754944      7.2814845865098405 -1.2405061464415853e-06
    73   1      5.4355524061284841      7.7192506245575023      1.7911559632781493
    74   1      4.1238414482538461      5.5028405614534535      1.7911559600849103
    75   1      5.0174972520725998      9.5148931672399346 -1.2305471843536229e-06
    76   1      2.8491496542327894      10.843051812348513 -1.2215243239163934e-06
    77   1       4.539942656208293      11.344553601994022      1.7911559851758565
    78   1       3.258328243285793      9.0789212466758116      1.7911559702922069
    79   1      3.9502840764989302      13.100009344302546 -1.2106777717471377e-06
    80   1      1.8602925262008778      15.000000028316625  -1.188175381047681e-06
    81   1      3.6824515903667532      15.000000108155474      1.7911560149634864
    82   1      2.4177754607086386      12.830271708096225      1.7911559909107131
    83   1      2.3880526016041226      5.1142353629249744 -1.2428661933635354e-06
    84   1     0.20409221611502473      6.3577175468013047 -1.2422465332670052e-06
    85   1      1.9449702446030821      6.8392996306971128      1.7911559609089811
    86   1      1.5145278481763862      8.6292969443450449 -1.2370621538641314e-06
    87   1      1.1068233876376159      10.496568508985273      1.7911559812053217
    88   1      14.560520058516621      8.1678156375865534      1.7911559639525523
    89   1     0.82066966932840058      12.277662204874401 -1.2133996813969164e-06
    90   1     0.25437784752315512      13.839252051960603      1.7911559903365768
    91   1      6.2671663456869986      18.243615126661364       3.582313241772848
    92   1      5.8949151868689551      16.522905895304199       5.373470435169442
    93   1      7.1732608185554048      21.832184347915529      3.5823132694203328
    94   1      6.7633040016743342      19.991606001738312      5.3734704547860073
    95   1      3.9502837922901826      16.899990820347686      3.5823132396748374
    96   1      2.8491491901626245      19.156948270070355      3.5823132510548819
    97   1      4.5399422847421098      18.655446461062272      5.3734704503668889
    98   1      2.4177753048017627      17.169728473147494      5.3734704448886319
    99   1      5.0174966634490721      20.485106842476007      3.5823132604828798
   100   1      3.6995548472349653      22.718515474642469       3.582313270962509
   101   1      5.4355516470919998       22.28074941823682      5.3734704726942217
   102   1      3.2583275708622876       20.92107883629555      5.3734704655374044
   103   1      5.8648956207983227      24.077959467562838      3.5823132731453673
   104   1       4.123840611076055      24.497159500777606      5.3734704760194267
   105   1      13.282173740113638      16.522905901754871      3.5823132314615256
   106   1      0.8206693566112444      17.722337806499862       3.582313242634839
   107   1      14.150562519575821      19.991605960146355      3.5823132520180301
   108   1       1.106822791256155       19.50343143508935      5.3734704542867773
   109   1      13.654424862862268      18.243615099430649      5.3734704449985138
   110   1       1.514527121069827      21.370703043948943      3.5823132674846221
   111   1     0.20409140632138897      23.642282432117426      3.5823132730621428
   112   1      1.9449694421343864      23.160700393542051      5.3734704752714801
   113   1      14.560519340959441      21.832184319768668      5.3734704722471225
   114   1      2.3880517489817352      24.885764671035467      3.5823132734254686
   115   1      9.8050337743957225      17.169728487035361       3.582313241800493
   116   1      11.337542298576897      16.899990843934336      5.3734704427039208
   117   1      11.927200799075326      18.655446468751727      3.5823132474654251
   118   1      10.645586094358146      20.921078852462792      3.5823132627832854
   119   1      12.404755185887348      20.485106829140651      5.3734704633552575
   120   1      10.236407702392265      19.156948308014464      5.3734704539465499
   121   1      12.822810170653904      22.280749412105973      3.5823132700055198
   122   1      11.511099141741784      24.497159511659529      3.5823132733735155
   123   1      13.252154151136052      24.077959462812935      5.3734704760283822
   124   1      11.086813371908129      22.718515490428434      5.3734704738433638
   125   1      8.2079278595393372      17.722337813740889      5.3734704457147524
   126   1      8.4940813124849566      19.503431477467153      3.5823132513946274
   127   1      8.9017856442405492      21.370703075599749      5.3734704702954437
   128   1      9.3322279633039766      23.160700419247583       3.582313272560818
   129   1      9.7753102770778266      24.885764690033341      5.3734704763387553
   130   1      7.5913499242878499      23.642282460542013      5.3734704758028897
   131   1     0.25437791653603953      16.160747975803005      5.3734704448330248
   132   1      7.6416364169345004      16.160748005168617      3.5823132416768164
   133   1      14.150563145857369      10.008393885418613      3.5823131834467654
   134   1      13.282173685055435      13.477094305937927      3.5823132035036296
   135   1      13.654425267817555      11.756384689598141      5.3734703958533858
   136   1      12.837309228796293      15.000000341179803      5.3734704203572425
   137   1      11.511099956327824      5.5028405668454408      3.5823131631560945
   138   1      13.252154953456223      5.9220405835186485      5.3734703660395802
   139   1      12.822810919302015      7.7192506161718821      3.5823131662847492
   140   1      10.645586759654934      9.0789212622267481      3.5823131731364266
   141   1      12.404755767583987      9.5148931542128388      5.3734703780029829
   142   1      11.086814146700439       7.281484597106787      5.3734703680634199
   143   1      11.927201181520671      11.344553611736385      3.5823131878654371
   144   1      9.8050340258966546       12.83027172557269      3.5823131932935337
   145   1      11.337542611017104      13.100009368968916      5.3734703979016967
   146   1      10.236408184515415      10.843051850783796      5.3734703869473037
   147   1      11.069710110553618      15.000000146510896      3.5823132174946823
   148   1      9.2475510458200443      15.000000059609569      5.3734704203097952
   149   1      9.7753111120450171      5.1142353755662446      5.3734703657766438
   150   1      9.3322287632685672      6.8392996512356072      3.5823131638335521
   151   1      7.1732615442447711      8.1678156656433352      3.5823131666049317
   152   1      8.9017863675530506      8.6292969736218428      5.3734703712942915
   153   1      7.5913507391454562      6.3577175732655329      5.3734703660041854
   154   1      8.4940819090974475      10.496568548968193      3.5823131838767601
   155   1      6.2671667470510188       11.75638471791326      3.5823131925833844
   156   1      8.2079282035151131      12.277662217134131       5.373470395182852
   157   1      6.7633046271324053      10.008393924765727       5.373470386245577
   158   1      7.6416363897657025      13.839252068507097      3.5823131927731939
   159   1      5.4500507024054956       15.00000022140531      3.5823132165029898
   160   1      5.8949151941946196      13.477094296014712      5.3734704069927286
   161   1      5.8648964450782746      5.9220405904798685      3.5823131630224117
   162   1      3.6995556332780457      7.2814845865054902      3.5823131650619384
   163   1       5.435552406123878      7.7192506245571515       5.373470368863976
   164   1      4.1238414482583616       5.502840561457421       5.373470365659057
   165   1      5.0174972520816485      9.5148931672184212      3.5823131750435611
   166   1       2.849149654238563      10.843051812463793      3.5823131840468712
   167   1      4.5399426562057217      11.344553601992111      5.3734703907289045
   168   1      3.2583282432668144      9.0789212466770497      5.3734703758269173
   169   1      3.9502840768561058       13.10000934446221      3.5823131948836404
   170   1      1.8602925262015146      15.000000028306559      3.5823132173982351
   171   1      3.6824515903667518       15.00000010815651      5.3734704205381227
   172   1      2.4177754607266553      12.830271708087475      5.3734703962308927
   173   1       2.388052601604981      5.1142353629220079      3.5823131627182332
   174   1     0.20409221611800321      6.3577175468020188      3.5823131633420258
   175   1       1.944970244608845      6.8392996307109399      5.3734703664789052
   176   1      1.5145278481667153       8.629296944361398      3.5823131685001353
   177   1      1.1068233876199489      10.496568509040015      5.3734703867585027
   178   1      14.560520058523895      8.1678156376097064      5.3734703695316446
   179   1     0.82066966908983463      12.277662204832534        3.58231319215662
   180   1     0.25437784755760673      13.839252051924147      5.3734703959680035
