(written by ASE)

288 atoms
1 atom types

0.0      22.940979540778198  xlo xhi
0.0                      30  ylo yhi
0.0      7.1646288111473151  zlo zhi

Atoms # atomic

     1   1      14.142430861630189      20.069653142567837      0.4432434114467888
     2   1       12.91423459511547      18.537842635486996      2.2343997979340275
     3   1      9.2125195289833179      18.968729236627762     0.44324338359142457
     4   1      10.560277692389663      17.712228628670086      2.2344001116280956
     5   1      7.9894431074187358      17.633546697248466      2.2344007380837216
     6   1       11.68886770137064      19.303669815713523     0.44324331026353436
     7   1      11.713714763992975      21.900176889258368     0.44324237583830639
     8   1      12.918530073385577      21.018744074339804      2.2344008035701712
     9   1      10.486414458625724      20.383583621357538      2.2344004968696169
    10   1      14.154649302319349      22.580398106894265     0.44324298673334184
    11   1      14.065567382811031      25.102038606177139     0.44324291204733751
    12   1      12.978177615208883      23.528142180201996      2.2344004945582645
    13   1      3.9862924149350332       18.94766595338368      0.4432431332260976
    14   1      5.3971908400550994      17.651065870436327      2.2344007142938174
    15   1      2.7846243412060629      17.566861170278223      2.2344015210121859
    16   1      6.6432782897025096      18.961431160009376     0.44324334153315681
    17   1      6.5955600967839727      21.542034070720323     0.44324302014588202
    18   1      7.9265415294242452      20.275138410643208      2.2344004291357269
    19   1      5.2935142720372665      20.230422253540834      2.2344003161882382
    20   1      9.2027010362526998      21.582800961732083     0.44324309847882387
    21   1      9.1377423971508769      24.124585075801328     0.44324311743221395
    22   1      10.492479779906841      22.980237600897716      2.2344004088274518
    23   1      7.8682383204140844      22.868160337081733      2.2344002117159318
    24   1      11.633297205526633      24.431886995929709     0.44324294508508644
    25   1      22.030767417209503      17.712228633086092     0.44324289275047418
    26   1      1.4437447952812628      18.537842369955392     0.44324255994432227
    27   1      1.4480411890438523      21.018743545256818     0.44324367981065921
    28   1      2.6719411459095315      20.069653098660122      2.2344006172626347
    29   1     0.21837795051355899      19.303669805801977      2.2344005425342379
    30   1      3.9473876353348984      21.493094282643536     0.44324318911749072
    31   1      3.9778778626334357      24.018729155305156       0.443242924517248
    32   1      5.2799399462723713      22.783833956949504      2.2344001373338114
    33   1      2.6841595024127223      22.580398166882453      2.2344001660293213
    34   1      6.5600196598713341      24.151229587196781     0.44324291728845328
    35   1      5.1672920343808357      25.304905653405509      2.2344001229147499
    36   1      16.867680610970957      17.651065889228992     0.44324354710830749
    37   1      19.459932875886555      17.633546720484333     0.44324358200210479
    38   1      19.397031374891139      20.275138429348086     0.44324326236099537
    39   1      20.683009371577963      18.968729256465551      2.2344006308366833
    40   1      18.113768193799881      18.961431121572545      2.2344005820431789
    41   1      21.956904478119654      20.383583742523381      0.4432433150556172
    42   1      21.962969292043951      22.980237946552148     0.44324323247119307
    43   1      0.2432250168371376      21.900176896812013      2.2343995130964922
    44   1      20.673190757722953      21.582801016873205      2.2344003253132732
    45   1      1.5076879952162334      23.528141860003615     0.44324332200001948
    46   1      2.5950776134859357      25.102038615455484      2.2344000774838002
    47   1      23.103786960184767      24.431887022079898       2.234400145058824
    48   1      14.255114153339166      17.566861092311058     0.44324419025617523
    49   1      15.456783101137765      18.947665149687776      2.2344003390139009
    50   1      16.764004041943608      20.230422253144152     0.44324313098372992
    51   1      16.750429698704394      22.783833968441407     0.44324296929502494
    52   1      18.066049809485197      21.542034048109361      2.2344002492214501
    53   1      15.417877275608605      21.493093955232268      2.2344003821239093
    54   1      19.338728160694615      22.868160465043065     0.44324304013010779
    55   1      20.608232161551054      24.124585099670082      2.2344003437060969
    56   1      18.030509422489018      24.151229531410308      2.2344001551560035
    57   1      15.448367623814564      24.018728982594471      2.2344001595660496
    58   1      16.637781804991107      25.304905645725349     0.44324295717267675
    59   1      22.203162567180133      14.999999995479218     0.44324303944425075
    60   1      20.744066764105884      16.315454786727113      2.2344008780010576
    61   1      21.956904227456143      9.6164162724371636     0.44324385074077699
    62   1      22.030767355443988      12.287771365134208     0.44324312108304137
    63   1      19.459932794513122      12.366453306280432     0.44324375761362772
    64   1      20.744066741950032      13.684545207273141      2.2344009402496341
    65   1      20.683009219628246      11.031270730907259      2.2344009318120794
    66   1      19.499787684847174      15.000000015506151     0.44324368954622617
    67   1      16.908870990419512      15.000000044716023     0.44324384684580476
    68   1      18.188290605362901      16.327117051735531      2.2344008413089056
    69   1      18.188290533884864      13.672882981407684      2.2344009502149196
    70   1      15.657460560271414      16.324401052635608       2.234400664143207
    71   1      21.962969143269511      7.0197621064186579     0.44324395975219805
    72   1      19.338727930237191      7.1318395150152236     0.44324373584607285
    73   1      20.673190557376003       8.417198934344702      2.2344008473226924
    74   1      20.608231919322662      5.8754148275666731      2.2344009357415797
    75   1      19.397031202380038      9.7248615801772935     0.44324374071993361
    76   1      16.764003938814231      9.7695777663205305      0.4432437380792425
    77   1      18.113768040100901       11.03856890508958      2.2344009833757617
    78   1      18.066049661488719      8.4579659357641912      2.2344009247665215
    79   1      16.867680513142989      12.348934192736159     0.44324385603819144
    80   1      14.255114045205371      12.433138791090535     0.44324459422301415
    81   1      15.657460532212722      13.675599082925007      2.2344008308948089
    82   1      15.456782772580397      11.052334654740426      2.2344008910683666
    83   1       14.31833507213072      14.999999968357683     0.44324487545851227
    84   1      11.753465798763218      16.513132084160524     0.44324505658880509
    85   1       13.16823850936291      16.191525565858676      2.2343982036145227
    86   1      13.168238375979444      13.808474302930717      2.2343983165746835
    87   1      16.637781577260228      4.6950943379458137     0.44324373533605105
    88   1      18.030509199122488      5.8487704186641665      2.2344009292376334
    89   1      16.750429519103797       7.216166029621891     0.44324372045007726
    90   1      14.154649065982516      7.4196018110459683     0.44324356701498785
    91   1      15.417877135692621      8.5069059664907538      2.2344011158001482
    92   1      15.448367410059188      5.9812709625171312      2.2344009765276809
    93   1      14.142430776010027       9.930346832771189     0.44324362248580423
    94   1      11.688867536818881      10.696330147940422     0.44324368098190609
    95   1      12.914234512946113      11.462157450909409      2.2344002652630119
    96   1      12.918530087575443      8.9812559144850592      2.2344016092132604
    97   1      11.753465799100436      13.486867836898728     0.44324539925185164
    98   1      9.2735769356216302      13.684545182601488     0.44324368178277035
    99   1      10.732672799412798      14.999999984395245      2.2344002554016922
   100   1       10.56027759461878       12.28777133150242      2.2344003413903986
   101   1      9.2735769939954711      16.315454781881201     0.44324361942153423
   102   1      6.7178007716106638      16.327117091318748     0.44324358853417722
   103   1      8.0292979149487724      14.999999993432573       2.234400839722217
   104   1      14.065567171055665      4.8979613432070668     0.44324371455598444
   105   1      11.633296969223897      5.5681129307467394      0.4432436900939109
   106   1      12.978177442821405      6.4718578588429185      2.2344012913375302
   107   1      11.713714582566238      8.0998230592660896     0.44324303244063201
   108   1      9.2027007941502212      8.4171989201839654     0.44324362166448739
   109   1      10.486414339689954      9.6164162999448202      2.2344010165155228
   110   1      10.492479477342224       7.019762226002185      2.2344011311407685
   111   1      9.2125194306857363      11.031270704548987     0.44324368535474967
   112   1      6.6432782040924367      11.038568848640848     0.44324374434458469
   113   1      7.9894430197237529      12.366453290691426      2.2344009119804236
   114   1      7.9265413870586627      9.7248615451439484      2.2344009069038964
   115   1      6.7178007590341426      13.672882939378537     0.44324369763314031
   116   1      4.1869706990005042      13.675599015706025     0.44324357659777985
   117   1        5.43838122372442      15.000000028793561      2.2344010090716186
   118   1      5.3971907565896977       12.34893415487792      2.2344010228353817
   119   1      4.1869707564174075      16.324401138677331     0.44324340830320602
   120   1      1.6977486269871942      16.191525549683817      0.4432407525913728
   121   1      2.8478453046645504      14.999999945759784      2.2344022687586107
   122   1      9.1377421646501915      5.8754148098877748     0.44324370863220386
   123   1      6.5600194218311705      5.8487703579885659     0.44324369465573749
   124   1      7.8682381233230521      7.1318395352052431      2.2344009111928975
   125   1      6.5955599189921896      8.4579658911473548     0.44324369776158506
   126   1      3.9473874014474584      8.5069057812876068     0.44324392118629924
   127   1       5.293514168697337      9.7695777419733254       2.234400922971628
   128   1      5.2799397433386552      7.2161660052086969      2.2344008918353424
   129   1      3.9862926100650729      11.052334293793029     0.44324368566059597
   130   1      1.4437446739575652      11.462157436669541     0.44324301372137537
   131   1      2.7846242967010388      12.433138847141331      2.2344019236497088
   132   1      2.6719409597889507      9.9303467650814188      2.2344008373704636
   133   1      1.6977486819255958      13.808474368251746      0.4432408652774249
   134   1     0.28297608383692402      16.513132127204745      2.2344024960541877
   135   1     0.28297599107134958      13.486867868036956      2.2344028374142462
   136   1      5.1672917853958751      4.6950943117603678      2.2344009061419321
   137   1      3.9778776498666586      5.9812708756280957     0.44324374396528127
   138   1       1.507687699479658        6.47185798224658      0.4432441200941023
   139   1      2.6841593247189177      7.4196018591019524      2.2344007507149377
   140   1        2.59507737602314      4.8979613330455214      2.2344008824478032
   141   1      1.4480408005752841      8.9812563018516833     0.44324448095066138
   142   1     0.21837785427130799      10.696330206118661      2.2344009131560383
   143   1      0.2432247906668823      8.0998230749340472      2.2344001660586192
   144   1      23.103786739956156      5.5681129595892473      2.2344008869031415
   145   1      14.142430865306038      20.069653147066077        4.02555683527223
   146   1      12.914234524880859      18.537842453052328      5.8167142637871647
   147   1      9.2125195901199444      18.968729241715312      4.0255577936642064
   148   1      10.560277648662385       17.71222860413889      5.8167145275764005
   149   1      7.9894431039140166      17.633546708684211      5.8167151246107016
   150   1      11.688867779476572      19.303669754718168      4.0255577108593705
   151   1      11.713714765787611      21.900176877714667      4.0255574078519913
   152   1      12.918530974295319      21.018743457366881      5.8167152124342847
   153   1      10.486414694953444      20.383583723307012      5.8167148250591154
   154   1      14.154649303239781      22.580398107438644      4.0255572121128651
   155   1      14.065567376080917      25.102038608418862      4.0255572707965097
   156   1      12.978177739998051         23.528141874284       5.816714898058728
   157   1      3.9862933372662406      18.947665142801533      4.0255575377333832
   158   1      5.3971908323085929      17.651065866699014       5.816715240742508
   159   1      2.7846243532793173      17.566861162267845       5.816715936485191
   160   1      6.6432784322717247      18.961431108343756       4.025557766403951
   161   1      6.5955600400149645      21.542034045710313      4.0255574865271297
   162   1      7.9265416063573308      20.275138414745626      5.8167148299263411
   163   1      5.2935142738697394      20.230422255196256       5.816714796688701
   164   1       9.202700983880705      21.582801021113955      4.0255575458379305
   165   1      9.1377423803814644      24.124585110725917      4.0255572062057912
   166   1      10.492479538251439       22.98023791651417      5.8167147984277152
   167   1      7.8682383876729016      22.868160461887669      5.8167146242312526
   168   1      11.633297200048156      24.431886992815233      4.0255575499210812
   169   1      22.030767463313481      17.712228658459409      4.0255573058752372
   170   1      1.4437448693536623      18.537842561635678      4.0255570002382024
   171   1      1.4480402350046604      21.018744197035797      4.0255580842625518
   172   1      2.6719411419778512      20.069653095009802      5.8167139839868085
   173   1     0.21837790142531949       19.30366983587643      5.8167149425095772
   174   1      3.9473875211562581      21.493093937161344      4.0255575912395525
   175   1      3.9778778440894285       24.01872898772244      4.0255573230252324
   176   1      5.2799399373870886      22.783833967118159      5.8167145489852157
   177   1       2.684159506680392      22.580398163515468      5.8167143834822772
   178   1      6.5600196529537751       24.15122953289065      4.0255573003287877
   179   1      5.1672920354901501      25.304905650162301      5.8167144251650154
   180   1      16.867680618305268      17.651065893837337      4.0255580667836064
   181   1      19.459932879123226      17.633546708471453      4.0255579732714573
   182   1      19.397031293251164      20.275138425275472      4.0255576673089886
   183   1      20.683009323078938      18.968729254124828      5.8167150409079635
   184   1      18.113768061078005      18.961431169811565      5.8167150068795763
   185   1      21.956904227414228      20.383583634441639      4.0255576787075604
   186   1      21.962969548271023      22.980237611105935      4.0255576366614845
   187   1     0.24322502117980815      21.900176898554268      5.8167145820453827
   188   1      20.673190788843673       21.58280098772752      5.8167147756999915
   189   1      1.5076878658962101      23.528142181102854      4.0255577304553691
   190   1      2.5950776171386676      25.102038610807803      5.8167144314076014
   191   1      23.103786959595645      24.431887024113003      5.8167147574436537
   192   1      14.255114130729032       17.56686110529526      4.0255586061147177
   193   1       15.45678222986454      18.947665916353674      5.8167147418292631
   194   1      16.764004037692413      20.230422253852566      4.0255576081458333
   195   1      16.750429707313387      22.783833957920045      4.0255573787939927
   196   1      18.066049860590653      21.542034073061245       5.816714719127595
   197   1      15.417877381617327      21.493094282789183      5.8167147892776612
   198   1       19.33872808978408      22.868160331768006      4.0255574491466524
   199   1       20.60823216327007      24.124585087837705      5.8167144125595591
   200   1      18.030509425248745      24.151229583068879      5.8167145349962865
   201   1      15.448367643036107      24.018729141093118      5.8167145582442172
   202   1      16.637781802037903      25.304905649680975       4.025557262711505
   203   1      22.203162576011106      14.999999997948153       4.025557447291213
   204   1      20.744066746403938      16.315454797414574      5.8167152810217564
   205   1      21.956904102931546      9.6164163267734555      4.0255582189370713
   206   1      22.030767377384915        12.2877713598958      4.0255575303062345
   207   1      19.459932795299917      12.366453312768744       4.025558155715852
   208   1      20.744066733938016      13.684545203430568      5.8167153439232511
   209   1      20.683009193665146      11.031270733563474      5.8167153377364684
   210   1      19.499787688960549      15.000000016212779      4.0255581082107126
   211   1      16.908870994847728      15.000000044750323      4.0255583076412291
   212   1        18.1882905597164      16.327117107084707      5.8167152519615941
   213   1      18.188290516687289      13.672882963638434      5.8167153588519804
   214   1      15.657460493008209      16.324401169307116      5.8167150588859835
   215   1      21.962969267916783      7.0197622720467487       4.025558357577661
   216   1      19.338727895146317      7.1318395812537814      4.0255581446476745
   217   1       20.67319058239767      8.4171989633196649      5.8167152752898028
   218   1       20.60823192741346      5.8754148446316892      5.8167151750713364
   219   1      19.397031161517617      9.7248615819942277      4.0255581424539937
   220   1      16.764003936113543      9.7695777655952014      4.0255581774691285
   221   1      18.113767984413787      11.038568880992957      5.8167153985010582
   222   1      18.066049686376861      8.4579659250712496       5.816715362376943
   223   1      16.867680517061196      12.348934190443147      4.0255583250061022
   224   1      14.255114034391084      12.433138785442203       4.025558990490393
   225   1      15.657460501741221      13.675599060529574      5.8167152302956922
   226   1      15.456782386046378      11.052334325731724      5.8167152951831866
   227   1      14.318335071365738      14.999999969967403      4.0255592671312579
   228   1      11.753465804199715      16.513132090139386      4.0255594367096208
   229   1      13.168238470231051      16.191525476909497      5.8167126131293339
   230   1      13.168238373052708       13.80847429773214      5.8167127242461563
   231   1      16.637781575470516       4.695094335913077      4.0255580978507597
   232   1      18.030509202308007      5.8487703959571986      5.8167153216580161
   233   1      16.750429523197294      7.2161660348697074      4.0255581287734001
   234   1      14.154649067544771      7.4196018114549496      4.0255578960908931
   235   1      15.417877185163674      8.5069058245385687      5.8167155231694094
   236   1      15.448367417694005       5.981270892843499      5.8167153788384409
   237   1      14.142430777388311       9.930346830948265      4.0255575963836217
   238   1      11.688867574335045      10.696330177708401      4.0255580801365758
   239   1      12.914234484473265      11.462157514078744      5.8167146997853241
   240   1      12.918530485542197      8.9812561786943714      5.8167160171426104
   241   1      11.753465802303076      13.486867835152493      4.0255598017899556
   242   1      9.2735769448620129      13.684545187154015      4.0255580857594158
   243   1      10.732672791296212      14.999999981823233      5.8167146635449365
   244   1      10.560277575933293      12.287771335078247      5.8167147511326549
   245   1       9.273577013385081      16.315454770380423       4.025558022775992
   246   1      6.7178008191529646      16.327117031927678      4.0255579988318724
   247   1      8.0292979110178546      14.999999992762012      5.8167152595540275
   248   1      14.065567167402564       4.897961342576469      4.0255580977568934
   249   1      11.633296965732324      5.5681129321520659      4.0255581787768691
   250   1      12.978177495665307      6.4718579880560831      5.8167156949963763
   251   1      11.713714584755039      8.0998230658283443      4.0255577134339644
   252   1      9.2027007693687075      8.4171988903764507      4.0255580463632068
   253   1      10.486414446355319      9.6164162532745401      5.8167153844935378
   254   1      10.492479370875731      7.0197620842020649      5.8167155272973883
   255   1      9.2125194595084032      11.031270701984532       4.025558090988925
   256   1      6.6432782692856733      11.038568876507815      4.0255581585231761
   257   1      7.9894430191185553      12.366453285015222      5.8167153094289139
   258   1      7.9265414221277748      9.7248615435423869      5.8167153082364917
   259   1      6.7178007796152697      13.672882960797493       4.025558105962415
   260   1      4.1869707347026495      13.675599045862418      4.0255579763364162
   261   1      5.4383812195462387      15.000000028884653      5.8167154752577712
   262   1      5.3971907530330139      12.348934157016084      5.8167155010199565
   263   1      4.1869708272731145      16.324401016724032      4.0255578052868231
   264   1      1.6977486672396171      16.191525640840023      4.0255551602936919
   265   1      2.8478453051517412      14.999999945383726       5.816716659156473
   266   1      9.1377421549594811      5.8754147910235686      4.0255579718813808
   267   1      6.5600194180287277      5.8487703845971186      4.0255580891606932
   268   1       7.868238153454703      7.1318394785023962      5.8167153197304824
   269   1      6.5955598903445543      8.4579659037291659      4.0255581309765152
   270   1      3.9473873439194684      8.5069059477109459      4.0255583273408391
   271   1      5.2935141703201642      9.7695777422824897      5.8167153678198602
   272   1      5.2799397395619261      7.2161660006788422      5.8167153004678802
   273   1      3.9862930620608568      11.052334680113768      4.0255580897334005
   274   1       1.443744707642739        11.4621573602859      4.0255574478134264
   275   1      2.7846243076555766       12.43313885286199      5.8167163203330068
   276   1      2.6719409582791762      9.9303467670050569       5.816714737558887
   277   1      1.6977486874924719      13.808474368013965      4.0255552732376341
   278   1     0.28297607937634428      16.513132121210116      5.8167168753381961
   279   1     0.28297598799476809      13.486867869091961      5.8167172382158885
   280   1       5.167291786717259      4.6950943134922456      5.8167152613957551
   281   1      3.9778776408102412      5.9812709570760436      4.0255581465084154
   282   1      1.5076876373885144      6.4718578302502339      4.0255585247473391
   283   1      2.6841593244174367      7.4196018593274671      5.8167150663886451
   284   1      2.5950773790721491      4.8979613339915522      5.8167152621854692
   285   1      1.4480403348966608      8.9812559915186192      4.0255588879977111
   286   1     0.21837781810944171       10.69633017587288      5.8167153117977968
   287   1     0.24322478984429743      8.0998230692234525      5.8167148941167168
   288   1      23.103786742497817       5.568112958019892      5.8167153903346911
