(written by ASE)

276 atoms
1 atom types

0.0      21.787352867796852  xlo xhi
0.0                      30  ylo yhi
0.0      7.1646288111473151  zlo zhi

Atoms # atomic

     1   1       9.234173583995025      16.770421887138991      1.7911571999497757
     2   1      9.9863598151516992      20.140497156300295      1.7911572000051703
     3   1      9.6215787349238404      18.423694569631476        3.58231440278254
     4   1      10.620876662480923      23.747779487243083      1.7911571999611231
     5   1      10.332076547987519      21.923696493126954      3.5823144027172562
     6   1      5.7558177903973027      16.933562580464624      1.7911571999897928
     7   1      7.4310207675629014      16.862945973434925      3.5823144027531417
     8   1      7.7044061098860261      18.725061417922223      1.7911571996050639
     9   1      6.4510714360860231        20.8865241231555      1.7911571999231368
    10   1      8.1950632282288982      20.509260602222025      3.5823144027374094
    11   1      6.0729116916628518      18.961167455110466      3.5823144027498488
    12   1      8.5467886232315902      22.327181226076327      1.7911571999840186
    13   1      7.0847621555755591      24.468286109719624      1.7911571999753915
    14   1      8.8761125557224805       24.13282003755603      3.5823144027365461
    15   1      6.7774767336741677      22.676439650741717      3.5823144027563503
    16   1      2.6747085592998672      17.632326464048827      1.7911571999811975
    17   1      4.3244806121038959      17.166122520586416      3.5823144027415803
    18   1      2.1684172857427879      16.168667714562638       3.582314402762647
    19   1      4.5670593664141013      19.206937430052079      1.7911572004310188
    20   1      2.9726097777326284      21.276377037674418      1.7911572000215659
    21   1      4.7075949886600883      21.079917403514216      3.5823144027763663
    22   1       2.822724087686836      19.331189534135703      3.5823144027503577
    23   1      4.9986032086373813      22.948955082377751      1.7911571999436928
    24   1      3.4994226996178353      24.983271857315884      1.7911571999505347
    25   1      5.2813120223169339      24.745273118712028       3.582314402754295
    26   1      3.2341982781622995      23.142612689956891      3.5823144027454132
    27   1     0.38196353270045108      16.515254877062102       1.791157199972949
    28   1      20.515255169061106       18.42369456970135      1.7911572000206644
    29   1     0.57570373699928712      18.069747470106648      3.5823144027263001
    30   1      20.127850017823981      16.770421887059356      3.5823144027029494
    31   1     0.97276875553550013      19.689017909773536      1.7911572000036815
    32   1      21.225752981880156      21.923696493097371      1.7911571999318101
    33   1      1.2177304359358538      21.523224132972963       3.582314402746881
    34   1      20.880036248988535      20.140497156381056      3.5823144028008467
    35   1      1.4805551222479041       23.41250048979537      1.7911571999788181
    36   1      1.7513585732714136      25.193312970815544      3.5823144027538283
    37   1      21.514553096339416       23.74777948729902      3.5823144027567144
    38   1       18.32469720135839      16.862945973711049      1.7911571999363969
    39   1      16.966588124367522      18.961167455255936      1.7911571999745755
    40   1      18.598082543766857      18.725061417920521      3.5823144023175741
    41   1      16.649494224334632      16.933562580472838      3.5823144027539264
    42   1      19.088739662195959      20.509260602293388       1.791157199959128
    43   1      17.671153167627288       22.67643965078803       1.791157199967996
    44   1      19.440465057141296      22.327181226080022      3.5823144027774765
    45   1      17.344747870002063      20.886524123157059      3.5823144026892222
    46   1      19.769788989635178       24.13282003755878      1.7911571999518843
    47   1      17.978438589488789      24.468286109721692      3.5823144027629463
    48   1      13.062093719620119       16.16866771451005      1.7911571999872915
    49   1      15.218157045907441       17.16612252043727      1.7911572000139668
    50   1      13.716400522737874      19.331189534082128      1.7911571999706379
    51   1      15.460735800308141      19.206937430059043      3.5823144032878034
    52   1      13.568384993176968      17.632326464066644      3.5823144027530578
    53   1      15.601271422464897      21.079917403871342      1.7911571999723614
    54   1      14.127874711977714      23.142612690069367      1.7911571999652907
    55   1      15.892279642530639      22.948955082381296      3.5823144027245255
    56   1      13.866286211601778      21.276377037669235      3.5823144028271328
    57   1      16.174988456254123      24.745273118763514      1.7911571999668963
    58   1      14.393099133517229      24.983271857325011       3.582314402734061
    59   1      11.275639966564016      16.515254877081443      3.5823144027295806
    60   1      11.469380171140402      18.069747470231313      1.7911571999936031
    61   1      11.866445189383736      19.689017909756547      3.5823144027860323
    62   1      12.111406869982693      21.523224132773329      1.7911571999664375
    63   1      12.374231556153637      23.412500489804618      3.5823144027689344
    64   1      12.645035007116606      25.193312970853349      1.7911571999609439
    65   1       18.26179360578076      15.000000000001428      3.5823144027557228
    66   1    0.022194831498339538       15.00000000002075      3.5823144027487137
    67   1      10.915871265365585      15.000000000003022      1.7911571999557634
    68   1      20.048689764840518      14.999999999980462      1.7911571999724474
    69   1      5.5863494211435336      15.000000000005018      3.5823144027543314
    70   1      7.3681171718939158      14.999999999995056      1.7911571999954583
    71   1      9.1550133310804949      14.999999999991674       3.582314402745542
    72   1      3.7586899320737066      15.000000000002521      1.7911571999975413
    73   1      14.652366365976114      15.000000000003855      3.5823144027946756
    74   1      21.514553096358743      6.2522205127060575      3.5823144027799709
    75   1      20.880036249015092       9.859502843636001      3.5823144028072398
    76   1      21.225752981898683      8.0763035068945008      1.7911571999625049
    77   1      20.127850017852229      13.229578112941919      3.5823144027344438
    78   1      20.515255169108706      11.576305430330011      1.7911572000150091
    79   1      17.978438589500367      5.5317138902863041      3.5823144027953515
    80   1      19.769788989647257      5.8671799624413481      1.7911571999802098
    81   1      19.440465057155151       7.672818773924786      3.5823144028055989
    82   1      17.344747870016345      9.1134758768517017      3.5823144026845601
    83   1       19.08873966223014       9.490739397702141      1.7911571999790084
    84   1      17.671153167654108      7.3235603492128796      1.7911571999898637
    85   1      18.598082543790248      11.274938582092423      3.5823144021746618
    86   1      16.649494224311823      13.066437419532365      3.5823144027580596
    87   1      18.324697201353224      13.137054026238705      1.7911571999656988
    88   1      16.966588124149457       11.03883254472419      1.7911571999873164
    89   1      14.393099133530667      5.0167281426871781      3.5823144027538989
    90   1      16.174988456277216      5.2547268812382555      1.7911571999938309
    91   1      15.892279642548303      7.0510449176297501      3.5823144027403337
    92   1      13.866286211612955      8.7236229623361954      3.5823144028703364
    93   1      15.601271422461167      8.9200825960702943      1.7911571999896567
    94   1      14.127874711973179       6.857387309922057      1.7911571999954476
    95   1      15.460735800321913       10.79306256994699      3.5823144034898706
    96   1      13.568384993195336       12.36767353594268      3.5823144027466105
    97   1      15.218157045909832       12.83387747959349      1.7911572000023803
    98   1      13.716400522970169      10.668810465924643       1.791157199983092
    99   1      13.062093719616435      13.831332285532202       1.791157199990846
   100   1      1.2177304359711603      8.4767758670534707      3.5823144027670573
   101   1     0.57570373705714983      11.930252529880958      3.5823144027223348
   102   1      12.645035007118253      4.8066870291529087      1.7911571999889315
   103   1       12.37423155616306      6.5874995102064737      3.5823144028026812
   104   1      10.332076547997127      8.0763035068875499      3.5823144027228078
   105   1       12.11140687001933      8.4767758672777607      1.7911571999820532
   106   1      10.620876662502605      6.2522205127806076      1.7911571999838962
   107   1      11.866445189400455      10.310982090249825      3.5823144028047307
   108   1       9.621578734966949      11.576305430356737       3.582314402797576
   109   1      11.469380171202234       11.93025252974622      1.7911572000007554
   110   1       9.986359815166221      9.8595028437199694      1.7911572000031786
   111   1      11.275639966577037       13.48474512292262      3.5823144027155762
   112   1      9.2341735840187535      13.229578112856641      1.7911571999654721
   113   1      8.8761125557415301      5.8671799624496019      3.5823144027547094
   114   1      6.7774767336935993       7.323560349251955      3.5823144027795135
   115   1       8.546788623239097      7.6728187739300306      1.7911571999997054
   116   1      7.0847621555887734      5.5317138902804386      1.7911572000000537
   117   1      8.1950632282415423      9.4907393977696213      3.5823144027507294
   118   1      6.0729116914717745      11.038832544866889        3.58231440275721
   119   1      7.7044061098841858      11.274938582077301      1.7911571997462856
   120   1      6.4510714360925752       9.113475876846957      1.7911571999557503
   121   1      7.4310207675454549      13.137054026517301      3.5823144027474529
   122   1       5.755817790387467      13.066437419537593      1.7911571999979683
   123   1      5.2813120223360297      5.2547268812776622      3.5823144027832043
   124   1      3.2341982781651981      6.8573873100202585      3.5823144027751086
   125   1      4.9986032086480279      7.0510449176167631      1.7911571999757563
   126   1      3.4994226996340845      5.0167281426776968      1.7911571999806151
   127   1       4.707594988657501      8.9200825964216275      3.5823144027919884
   128   1      2.8227240878884854      10.668810465859099       3.582314402758509
   129   1      4.5670593664115113      10.793062569947216      1.7911572002815654
   130   1      2.9726097777449136      8.7236229623186929      1.7911572000213007
   131   1      4.3244806120789923      12.833877479441771      3.5823144027533713
   132   1      2.1684172857486068      13.831332285485546      3.5823144027720732
   133   1      2.6747085593062683      12.367673535959154      1.7911572000035039
   134   1     0.97276875555474718      10.310982090215466        1.79115720000058
   135   1     0.38196353270844308      13.484745122965647      1.7911571999915099
   136   1      1.7513585732785382      4.8066870291748813      3.5823144027813387
   137   1      1.4805551222654456      6.5874995101988887      1.7911572000015488
   138   1      16.480025855112956       15.00000000000691       1.791157199981307
   139   1      9.2341735839590484      16.770421887065002      5.3734716055826519
   140   1      9.9863598150895676      20.140497156372337      5.3734716055114795
   141   1      9.6215787351311963      18.423694569687672 -2.8415831244350118e-09
   142   1      10.620876662437714      23.747779487316361      5.3734716055432594
   143   1      10.332076547992614      21.923696493100081 -2.7808277552047068e-09
   144   1      5.7558177903925483        16.9335625804706      5.3734716055561726
   145   1      7.4310207674716944      16.862945973687452 -2.8143779193626489e-09
   146   1      7.7044061098810275      18.725061417907394      5.3734716059144718
   147   1      6.4510714361240176      20.886524123151034      5.3734716055886169
   148   1      8.1950632282924367      20.509260602290858 -2.8004964491874519e-09
   149   1      6.0729116905780876      18.961167455240464 -2.8183949852428011e-09
   150   1      8.5467886232506132       22.32718122608069      5.3734716055232248
   151   1      7.0847621555870024      24.468286109715955      5.3734716055280991
   152   1      8.8761125557284899      24.132820037560894 -2.8059355382845915e-09
   153   1       6.777476733723228      22.676439650777972 -2.8249267483055998e-09
   154   1      2.6747085593062803      17.632326464060981      5.3734716055728668
   155   1      4.3244806120332067      17.166122520448639 -2.8271254927331403e-09
   156   1      2.1684172857267621      16.168667714489121  -2.837467588253188e-09
   157   1      4.5670593664222041       19.20693743005814      5.3734716051000895
   158   1      2.9726097776783278      21.276377037652988      5.3734716054912273
   159   1      4.7075949885901291      21.079917403835928 -2.8414061713723701e-09
   160   1      2.8227240887470377      19.331189534094037 -2.8210472406123784e-09
   161   1      4.9986032086284204       22.94895508236544      5.3734716055593221
   162   1      3.4994226996195339      24.983271857310495      5.3734716055505212
   163   1      5.2813120223490202       24.74527311875017 -2.8261271370694584e-09
   164   1      3.2341982780851817      23.142612690046271 -2.8170393156749587e-09
   165   1     0.38196353267909061      16.515254877134247      5.3734716055944682
   166   1      20.515255168777301      18.423694569624473      5.3734716055064204
   167   1     0.57570373724042445      18.069747470224236 -2.7994330957456656e-09
   168   1       20.12785001792864      16.770421887156612 -2.7740288392136999e-09
   169   1     0.97276875546674624      19.689017909706411      5.3734716055214502
   170   1      21.225752981887648      21.923696493113653      5.3734716055790068
   171   1      1.2177304360561814      21.523224132772683 -2.8098124638244448e-09
   172   1      20.880036249029914      20.140497156278496 -2.8620156286087763e-09
   173   1      1.4805551222616793      23.412500489784193      5.3734716055237932
   174   1      1.7513585732240957      25.193312970838861 -2.8264485139842441e-09
   175   1      21.514553096376282      23.747779487240901 -2.8261135131911065e-09
   176   1      18.324697201457138      16.862945973426115       5.373471605593779
   177   1      16.966588125651878      18.961167455108551      5.3734716055494136
   178   1       18.59808254376815      18.725061417918194 -2.3783281593500057e-09
   179   1      16.649494224243377       16.93356258046644 -2.8243563027609858e-09
   180   1         19.088739662104      20.509260602219214      5.3734716055532639
   181   1      17.671153167563343      22.676439650742818      5.3734716055376319
   182   1      19.440465057129916      22.327181226074689 -2.8442201302685937e-09
   183   1      17.344747869992855      20.886524123157919 -2.7539813525360303e-09
   184   1      19.769788989617854      24.132820037554307      5.3734716055524467
   185   1      17.978438589477047      24.468286109722815 -2.8331574342599563e-09
   186   1      13.062093719653202      16.168667714532575      5.3734716055431306
   187   1      15.218157045998613      17.166122520598964      5.3734716055266594
   188   1      13.716400521498901       19.33118953416184      5.3734716055554204
   189   1      15.460735800312202      19.206937430060297 -3.3530532221733554e-09
   190   1      13.568384993219134      17.632326464042485 -2.8268782787929506e-09
   191   1      15.601271422576451      21.079917403500417      5.3734716055392466
   192   1      14.127874712069675      23.142612689959293      5.3734716055369338
   193   1      15.892279642530921      22.948955082382842 -2.7953649480591573e-09
   194   1      13.866286211611211      21.276377037675051  -2.890690783264354e-09
   195   1      16.174988456214894      24.745273118717773      5.3734716055350038
   196   1      14.393099133520273      24.983271857324301 -2.8066344031143896e-09
   197   1      11.275639966609576      16.515254877101164 -2.7997876216848086e-09
   198   1      11.469380170898495      18.069747470094164      5.3734716055380654
   199   1      11.866445189423963      19.689017909738617 -2.8432211229043176e-09
   200   1      12.111406869817074      21.523224132999115      5.3734716055457898
   201   1      12.374231556155449      23.412500489798717 -2.8400768047384361e-09
   202   1         12.645035007176      25.193312970824312      5.3734716055401481
   203   1       18.26179360577904      15.000000000014341 -2.8120056888541407e-09
   204   1    0.022194831483791262      15.000000000001609  -2.849001476643323e-09
   205   1      10.915871265413148      14.999999999983777      5.3734716055957694
   206   1      20.048689764983795      15.000000000046827       5.373471605588934
   207   1      5.5863494212123186       14.99999999999832 -2.8070819947602443e-09
   208   1      7.3681171718701002      15.000000000001497      5.3734716055378859
   209   1       9.155013330949977      14.999999999999222 -2.8090629083586211e-09
   210   1      3.7586899320782798      15.000000000001799       5.373471605537584
   211   1      14.652366365971172      15.000000000002363 -2.8464319174612573e-09
   212   1      21.514553096383864      6.2522205127473791 -2.8001232012281782e-09
   213   1      20.880036249038813      9.8595028437009251 -2.8438610071354991e-09
   214   1      21.225752981900801      8.0763035068897047      5.3734716055838332
   215   1      20.127850017901359       13.22957811286839 -2.7961016140819004e-09
   216   1       20.51525516875304      11.576305430361369       5.373471605528878
   217   1      17.978438589490764       5.531713890285249 -2.8143784997618906e-09
   218   1      19.769788989630019      5.8671799624520631      5.3734716055733847
   219   1      19.440465057147716      7.6728187739287712  -2.829565425174315e-09
   220   1      17.344747870007492      9.1134758768486552  -2.713579121441786e-09
   221   1      19.088739662104508      9.4907393977945098      5.3734716055660527
   222   1      17.671153167566253      7.3235603492745298      5.3734716055624556
   223   1      18.598082543784876      11.274938582088321 -2.2131142638212712e-09
   224   1      16.649494224276598      13.066437419540975 -2.8167154838405039e-09
   225   1      18.324697201484948       13.13705402665151      5.3734716055758209
   226   1      16.966588125894809      11.038832544934952      5.3734716055583016
   227   1      14.393099133534024      5.0167281426870858 -2.7696424628581346e-09
   228   1      16.174988456217992      5.2547268813018579      5.3734716055630036
   229   1       15.89227964254307      7.0510449176289995 -2.7586611980133968e-09
   230   1      13.866286211619714      8.7236229623384336 -2.9004399212514035e-09
   231   1      15.601271422609482      8.9200825965826631       5.373471605556885
   232   1      14.127874712100253      6.8573873100742269      5.3734716055610532
   233   1      15.460735800326724      10.793062569949239 -3.5356925881109862e-09
   234   1      13.568384993214039      12.367673535952834 -2.8061189606775252e-09
   235   1      15.218157046033534      12.833877479378966       5.373471605551968
   236   1      13.716400521279862      10.668810465848276      5.3734716055620213
   237   1      13.062093719653111      13.831332285430655      5.3734716055543705
   238   1      1.2177304360521097      8.4767758671867544 -2.7976712439708591e-09
   239   1     0.57570373719426271      11.930252529804317 -2.7853124320896237e-09
   240   1      12.645035007203287      4.8066870291939896      5.3734716055690077
   241   1      12.374231556172143      6.5874995102147311 -2.8204201481041113e-09
   242   1       10.33207654800071      8.0763035069018443 -2.7508667066049799e-09
   243   1      12.111406869796689      8.4767758669753626      5.3734716055625134
   244   1      10.620876662443228      6.2522205126804362      5.3734716055697644
   245   1      11.866445189420046      10.310982090271768 -2.8462266355495999e-09
   246   1      9.6215787350922852       11.57630543032224 -2.8399605725201067e-09
   247   1      11.469380170847787      11.930252529929662      5.3734716055417797
   248   1      9.9863598150794441      9.8595028436214118      5.3734716055381684
   249   1      11.275639966605997      13.484745122893756 -2.7794415591414452e-09
   250   1      9.2341735839467205      13.229578112942917      5.3734716055767722
   251   1      8.8761125557400824       5.867179962443779 -2.7747878586310236e-09
   252   1      6.7774767337267345      7.3235603492275363  -2.801384185335014e-09
   253   1      8.5467886232611345       7.672818773922268      5.3734716055503959
   254   1      7.0847621556064997      5.5317138902851726      5.3734716055546849
   255   1      8.1950632282830504      9.4907393977236882 -2.7811548490141218e-09
   256   1      6.0729116907698399      11.038832544782606 -2.8055358087717699e-09
   257   1      7.7044061098693222      11.274938582088556      5.3734716057962011
   258   1      6.4510714361298716      9.1134758768490176      5.3734716055921252
   259   1      7.4310207674817246      13.137054026355827 -2.7982366316259485e-09
   260   1      5.7558177904058061      13.066437419533369      5.3734716055631555
   261   1      5.2813120223625827      5.2547268812517878 -2.8000716732749578e-09
   262   1      3.2341982781117773      6.8573873099631797 -2.7924441699897207e-09
   263   1      4.9986032086412147      7.0510449176285137      5.3734716055798399
   264   1      3.4994226996329503      5.0167281426843813       5.373471605577298
   265   1      4.7075949886057176      8.9200825962164121  -2.822228912560447e-09
   266   1       2.822724088568906      10.668810465908221 -2.8116569732041227e-09
   267   1      4.5670593664231456       10.79306256994383      5.3734716052710079
   268   1      2.9726097776932425      8.7236229623489265      5.3734716055252818
   269   1      4.3244806120348427      12.833877479532068 -2.8289970452168946e-09
   270   1       2.168417285734356      13.831332285485157 -2.8332715478739338e-09
   271   1      2.6747085593049573       12.36767353594146      5.3734716055685317
   272   1     0.97276875547188868      10.310982090301261      5.3734716055405691
   273   1      0.3819635326738009      13.484745122864915       5.373471605583048
   274   1       1.751358573243033      4.8066870291595896 -2.7971011252192377e-09
   275   1      1.4805551222722655      6.5874995102109573      5.3734716055544878
   276   1      16.480025855035905       15.00000000000073      5.3734716055502627
