(written by ASE)

224 atoms
1 atom types

0.0      18.265755655538001  xlo xhi
0.0                      30  ylo yhi
0.0      7.1646288111473151  zlo zhi

Atoms # atomic

     1   1      14.725497872306919      16.501890460227081  1.1644914916994345e-07
     2   1      15.399306895445649      19.799751527110988  8.9769620315312396e-08
     3   1      14.964754145688065      18.105211797485389      1.7911572749333333
     4   1       15.73582803643702      21.680968433678142      1.7911572883576754
     5   1      12.585250500505952      14.999999993048995  1.1514936519651654e-07
     6   1      10.988891838189756      16.930155943284745  1.1864302546380907e-07
     7   1      12.677612662546919      16.785134895821802      1.7911572629354227
     8   1      10.779937067192137       14.99999999519645      1.7911572781880478
     9   1      13.173650601176131      18.496242571475076  9.6794565944497479e-08
    10   1       11.85949758500332      20.687973430711402  8.7803127526381365e-08
    11   1      13.621897740377708      20.288267881195775      1.7911572867546368
    12   1      11.444748137016143      18.904125986639748      1.7911572778153984
    13   1       13.98594494141124      22.091540786647155  8.6183926892527003e-08
    14   1      12.568504905120792       24.28014556539037  8.5971060556020089e-08
    15   1      14.337842725264109       23.90863730636325       1.791157288657593
    16   1      12.221485092302435      22.493651025213786      1.7911572883698605
    17   1      8.9728953752451428      15.000000004603994  9.3149445565654659e-08
    18   1      7.8887115553171698      17.650255710398365  1.0549513157834701e-07
    19   1      9.5503284585009194      17.190233133093802      1.7911572577348971
    20   1       7.386930846122822      16.167484995594545      1.7911572829517746
    21   1      9.7948188539083603       19.19944500657088  9.5848558602678777e-08
    22   1      8.3233825324490436      21.307561185339068  8.7051501288019413e-08
    23   1      10.069280783877026      21.022932833646738      1.7911572868909058
    24   1      8.0296730771438121      19.378237212659538      1.7911572792832924
    25   1      10.453813208085625      22.823668399243093  8.6185858081229059e-08
    26   1      9.0280366459780037      24.907290990616119  8.5959833964668631e-08
    27   1      10.788810735208514      24.619747958134329      1.7911572886734897
    28   1      8.6775565434647071      23.155029677679853      1.7911572886000993
    29   1      3.4523726726679747      15.000000009343237  7.5490903699082102e-08
    30   1      5.5926200397408614      16.501890493697594   7.767267216970244e-08
    31   1      4.0407727438601535      18.496242581650982  8.2572498474400416e-08
    32   1      5.8318762882969493      18.105211805587604      1.7911572897352461
    33   1      3.5447348192050558      16.785134904695795      1.7911572966815559
    34   1      6.2664290525603787      19.799751505002064  8.6872154406407773e-08
    35   1      4.8530671120939397      22.091540781649879   8.585113349014272e-08
    36   1      6.6029502047086757      21.680968417696544      1.7911572882990807
    37   1      4.4890198980070419      20.288267884065025       1.791157288902115
    38   1      6.9351994798201124      23.523039935508205  8.5945969054688008e-08
    39   1      5.2049649030913363      23.908637302118276      1.7911572886673437
    40   1      5.2210932488825099      15.000000020544455      1.7911573018981857
    41   1       18.10577320290875      14.999999996808947  8.5102039835173929e-08
    42   1       1.647059239338909      15.000000001096051       1.791157291566799
    43   1        1.85601399329773      16.930155945499116  7.7648523495909851e-08
    44   1     0.66194102362173424      19.199445013461705  8.4582939990575559e-08
    45   1      2.3118702852074282      18.904125996334649      1.7911572912135394
    46   1     0.41745061835700314       17.19023313278316      1.7911572929572237
    47   1       2.726619745722803      20.687973440821736  8.5333314709999747e-08
    48   1      1.3209353804481614      22.823668414217398  8.5823865890763341e-08
    49   1      3.0886072637811406      22.493651033131417      1.7911572886993186
    50   1     0.93640295559118591      21.022932849294275      1.7911572888267924
    51   1      3.4356270831224873      24.280145570509866  8.5875514945460152e-08
    52   1      1.6559329117312755      24.619747970484205      1.7911572886727829
    53   1      16.519808678098112      16.167484953985539      1.7911572822547195
    54   1      17.021589375438349      17.650255710504656  8.9661427588930188e-08
    55   1      17.162550921004403      19.378237241154217      1.7911572869729679
    56   1      17.456260365542441      21.307561207341166  8.5951034959694289e-08
    57   1      16.068077306161388      23.523039952909738  8.5895617948540824e-08
    58   1      17.810434371231061      23.155029696495468      1.7911572886771312
    59   1      18.160914476266012      24.907291006597969  8.5867887299495708e-08
    60   1      14.353971076520654      14.999999982701972      1.7911572468989849
    61   1       17.45626037525593      8.6924388055529089  8.5801743212140127e-08
    62   1      17.810434386369725      6.8449703181600201      1.7911572884430031
    63   1      17.021589382983031      12.349744286481275  8.9613111462520119e-08
    64   1      17.162550917086204      10.621762773185971      1.7911572869584684
    65   1       16.51980867593436      13.832515023033464      1.7911572822653661
    66   1      16.068077321665374      6.4769600575962665  8.5675967878364251e-08
    67   1      13.985944952149433       7.908459213880767   8.601302244352198e-08
    68   1      15.735828045393239      8.3190315741178669      1.7911572881977864
    69   1      14.337842743743733      6.0913626943032542      1.7911572884352791
    70   1      15.399306894692993      10.200248483773631  8.9719705190390878e-08
    71   1      13.173650590343854      11.503757419523616  9.6728748374862019e-08
    72   1      14.964754134815138      11.894788194093868      1.7911572749279354
    73   1      13.621897740688015      9.7117321158545007       1.791157286665495
    74   1      14.725497871196234      13.498109521782679  1.1642379365983478e-07
    75   1      12.677612661171823      13.214865104321058        1.79115726298293
    76   1      12.568504925188144      5.7198544286875244  8.5736589905039193e-08
    77   1      10.453813223736528      7.1763315847810913  8.5966497217967696e-08
    78   1      12.221485105631944        7.50634896715491      1.7911572881798008
    79   1      10.788810755593587        5.38025202841495      1.7911572884347451
    80   1      11.859497586774699      9.3120265626819627  8.7678357779599633e-08
    81   1      9.7948188640072562      10.800554985690384  9.5741388861575869e-08
    82   1      11.444748119983634      11.095874001947202      1.7911572778142026
    83   1      10.069280800589862      8.9770671509444746      1.7911572867600261
    84   1       10.98889182170482      13.069844053715173  1.1848714447330355e-07
    85   1      9.5503284544435516      12.809766866939814      1.7911572578839627
    86   1       9.028036665472003      5.0927089908277869  8.5720754662838987e-08
    87   1      6.9351994924276763      6.4769600407936014  8.5722114268475425e-08
    88   1      8.6775565584576384      6.8449702997007096      1.7911572883646321
    89   1      8.3233825525844676      8.6924387840663542  8.6893272240790916e-08
    90   1      6.2664290818083828      10.200248462450531  8.6808950551801067e-08
    91   1      8.0296731051819084      10.621762745262988      1.7911572793160211
    92   1      6.6029502214803619      8.3190315586774268      1.7911572881429556
    93   1      7.8887115476728438      12.349744286594568  1.0532344662125904e-07
    94   1      5.5926200483065944      13.498109555213057   7.763167336748917e-08
    95   1      7.3869308523467581      13.832515064783921      1.7911572829961411
    96   1      5.8318763363932797      11.894788202529854      1.7911572897578087
    97   1        3.43562709187252      5.7198544339676216  8.5641950142820142e-08
    98   1      5.2049649105053808      6.0913626904374274      1.7911572884370242
    99   1      4.8530671259154303      7.9084592093403012  8.5678808781059802e-08
   100   1      2.7266197704397066      9.3120265728803524  8.5216370128196867e-08
   101   1      4.4890199273559634      9.7117321190937904      1.7911572888131961
   102   1      3.0886072786460912      7.5063489752044976      1.7911572885070874
   103   1      4.0407727917691094      11.503757429949612  8.2523310442703878e-08
   104   1      1.8560140109245695      13.069844056073432  7.7597127678670234e-08
   105   1      3.5447348487203878      13.214865113308445      1.7911572966893596
   106   1       2.311870316083172      11.095874011768199      1.7911572911804809
   107   1      18.160914491040227      5.0927090065132088   8.563085248527047e-08
   108   1      1.6559329238234504      5.3802520406730139      1.7911572884392406
   109   1      1.3209353959383081      7.1763315996249064  8.5608162518298269e-08
   110   1     0.93640297341806134      8.9770671664306931      1.7911572886969758
   111   1     0.66194103873800114      10.800554992460457  8.4519058814611586e-08
   112   1     0.41745063875112137      12.809766866572378      1.7911572929858381
   113   1      14.725497872316982      16.501890460248624      3.5823145220245385
   114   1      15.399306895440823      19.799751527088709      3.5823144953421795
   115   1      14.964754145690504      18.105211797485484      5.3734716805269152
   116   1      15.735828036437594      21.680968433679976      5.3734716939336886
   117   1      12.585250500493313      14.999999993048974      3.5823145207229978
   118   1      10.988891838190057      16.930155943287385      3.5823145242184942
   119   1      12.677612662549187      16.785134895821177      5.3734716685081052
   120   1      10.779937067192112      14.999999995197387      5.3734716837707595
   121   1       13.17365060117735      18.496242571476621      3.5823145023666063
   122   1      11.859497584999131      20.687973430712425       3.582314493376249
   123   1      13.621897740378722      20.288267881195427      5.3734716923273362
   124   1      11.444748137020969      18.904125986638576      5.3734716833870477
   125   1      13.985944941413649      22.091540786642287      3.5823144917607324
   126   1      12.568504905120465      24.280145565390921      3.5823144915323359
   127   1      14.337842725247382      23.908637306369787      5.3734716942295835
   128   1       12.22148509229689      22.493651025214888      5.3734716939426965
   129   1      8.9728953752502481      15.000000004603965      3.5823144987231741
   130   1      7.8887115553114278      17.650255710402103      3.5823145110561554
   131   1      9.5503284584993757      17.190233133095262      5.3734716633063604
   132   1      7.3869308461202881      16.167484995615698      5.3734716885210512
   133   1      9.7948188539047756      19.199445006573061      3.5823145014268492
   134   1      8.3233825324681572      21.307561185351105      3.5823144926275745
   135   1       10.06928078387943      21.022932833643285      5.3734716924746833
   136   1      8.0296730771356923      19.378237212642617      5.3734716848586519
   137   1      10.453813208087322      22.823668399243559      3.5823144917521317
   138   1      9.0280366459796948      24.907290990617852      3.5823144915450991
   139   1      10.788810735217659      24.619747958131953      5.3734716942480416
   140   1      8.6775565434771789      23.155029677670381      5.3734716941711378
   141   1       3.452372672693683      15.000000009343221       3.582314481064576
   142   1      5.5926200397192769      16.501890493647824      3.5823144832422509
   143   1      4.0407727438618783      18.496242581646751      3.5823144881427611
   144   1       5.831876288286499      18.105211805588411      5.3734716952637838
   145   1      3.5447348192037458      16.785134904696505      5.3734717022605247
   146   1      6.2664290525735087      19.799751505055927       3.582314492445934
   147   1        4.85306711208385      22.091540781662921      3.5823144914286131
   148   1      6.6029502047097521      21.680968417693649       5.373471693863368
   149   1      4.4890198980050737      20.288267884066084      5.3734716944732757
   150   1      6.9351994798163457      23.523039935517478       3.582314491538817
   151   1       5.204964903075199      23.908637302123925      5.3734716942478231
   152   1      5.2210932488829309       15.00000002055056      5.3734717075297507
   153   1      18.105773202900618      14.999999996809038      3.5823144906757736
   154   1      1.6470592393388712      15.000000001095575      5.3734716971237146
   155   1      1.8560139933037023      16.930155945494263      3.5823144832214462
   156   1     0.66194102362151475      19.199445013460029      3.5823144901581423
   157   1      2.3118702852099853      18.904125996334407      5.3734716967861784
   158   1     0.41745061835788932      17.190233132782605      5.3734716985268598
   159   1      2.7266197457242756      20.687973440820592      3.5823144909048343
   160   1      1.3209353804502613      22.823668414216897      3.5823144913892473
   161   1      3.0886072637748518      22.493651033132718      5.3734716942785008
   162   1     0.93640295559509368      21.022932849292918      5.3734716943966898
   163   1      3.4356270831252327      24.280145570508356      3.5823144914374367
   164   1      1.6559329117397683      24.619747970482244      5.3734716942449454
   165   1      16.519808678098713      16.167484953978178      5.3734716878318762
   166   1      17.021589375436985      17.650255710503849      3.5823144952393542
   167   1      17.162550921004385      19.378237241159944      5.3734716925468806
   168   1       17.45626036553568      21.307561207336196      3.5823144915251683
   169   1       16.06807730616158      23.523039952906476      3.5823144914885505
   170   1      17.810434371244433      23.155029696487915      5.3734716942504575
   171   1      18.160914476264921       24.90729100659706      3.5823144914514602
   172   1      14.353971076520917      14.999999982698819      5.3734716524421708
   173   1      17.456260375239477      8.6924388055623076      3.5823144913777867
   174   1      17.810434386367611      6.8449703181602448      5.3734716940192078
   175   1      17.021589382983354      12.349744286484164      3.5823144951819406
   176   1       17.16255091708345      10.621762773192419      5.3734716925315968
   177   1      16.519808675933596      13.832515023025648      5.3734716878444893
   178   1      16.068077321669428      6.4769600576065054      3.5823144912470646
   179   1      13.985944952157139      7.9084592138922529      3.5823144915853562
   180   1      15.735828045391591      8.3190315741187959       5.373471693780707
   181   1      14.337842743746108      6.0913626943043342       5.373471694000445
   182   1      15.399306894683157       10.20024848381501       3.582314495293851
   183   1      13.173650590344126      11.503757419520911      3.5823145023026091
   184   1      14.964754134811436      11.894788194093959      5.3734716805363352
   185   1      13.621897740686496      9.7117321158540779      5.3734716922394243
   186   1      14.725497871210427      13.498109521747246      3.5823145219955328
   187   1      12.677612661170086      13.214865104320676      5.3734716685545489
   188   1      12.568504925183307      5.7198544286846147      3.5823144913120561
   189   1      10.453813223737724      7.1763315847804092      3.5823144915410068
   190   1      12.221485105633096      7.5063489671551915      5.3734716937494325
   191   1      10.788810755592317      5.3802520284145681      5.3734716940125802
   192   1      11.859497586769409      9.3120265626806198      3.5823144932510793
   193   1      9.7948188640038136      10.800554985687754      3.5823145013125259
   194   1      11.444748119981348      11.095874001946889      5.3734716833861595
   195   1      10.069280800591093      8.9770671509427764      5.3734716923472163
   196   1      10.988891821704884      13.069844053712517      3.5823145240595298
   197   1      9.5503284544452907      12.809766866941242      5.3734716634552582
   198   1      9.0280366654761686      5.0927089908252618      3.5823144912923719
   199   1      6.9351994924220994      6.4769600407794767      3.5823144912930132
   200   1      8.6775565584561889      6.8449702996986144      5.3734716939342935
   201   1      8.3233825526095533      8.6924387840514949      3.5823144924662156
   202   1      6.2664290818244197      10.200248462384128      3.5823144923821744
   203   1      8.0296731051879195      10.621762745246894      5.3734716848915287
   204   1      6.6029502214791345      8.3190315586741335      5.3734716937031921
   205   1      7.8887115476664142      12.349744286589623      3.5823145109088625
   206   1      5.5926200482822646      13.498109555271908      3.5823144832092306
   207   1      7.3869308523489972       13.83251506480492      5.3734716885640443
   208   1      5.8318763364024289      11.894788202530661      5.3734716952764368
   209   1      3.4356270918779019      5.7198544339706112      3.5823144912168838
   210   1      5.2049649105073366      6.0913626904377631      5.3734716940215792
   211   1      4.8530671259026787      7.9084592093229311      3.5823144912510805
   212   1      2.7266197704432908      9.3120265728819476       3.582314490790063
   213   1      4.4890199273573295      9.7117321190947177      5.3734716943843477
   214   1      3.0886072786475856      7.5063489752050421      5.3734716940876055
   215   1      4.0407727917709133      11.503757429954582      3.5823144880985951
   216   1      1.8560140109300249      13.069844056078473      3.5823144831719858
   217   1      3.5447348487225052      13.214865113309379      5.3734717022686578
   218   1      2.3118703160839544      11.095874011768762      5.3734716967536169
   219   1      18.160914491037197      5.0927090065152703      3.5823144912044738
   220   1      1.6559329238228382      5.3802520406732235      5.3734716940091678
   221   1      1.3209353959394363      7.1763315996256063      3.5823144911831095
   222   1     0.93640297341902701      8.9770671664309898      5.3734716942612506
   223   1     0.66194103873866705      10.800554992463047      3.5823144900940309
   224   1     0.41745063875005234      12.809766866571737      5.3734716985566635
