(written by ASE)

100 atoms
1 atom types

0.0      8.0146695175546245  xlo xhi
0.0                      30  ylo yhi
0.0      7.1646288111473151  zlo zhi

Atoms # atomic

     1   1     0.48984947732941647      18.449634061736326      1.7911572174507135
     2   1      7.6294482365874181       16.25515997007815      3.5823145150550317
     3   1      3.6221135744254851      16.255158327955307      1.7911571257468017
     4   1      5.1165333074670931      16.256000450734255      3.5823146032293178
     5   1      6.2568423583895472      17.482399350651455      1.7911571614324899
     6   1      5.3415888551408477      19.984949816742748      1.7911572336712012
     7   1      6.9250152103396285      19.076940307508135      3.5823144977159971
     8   1      4.4971836879920346      18.449639597389901      3.5823145019889799
     9   1        7.72281996520364      20.862474192422855      1.7911572539808263
    10   1       6.904817533809565      23.341556732250453      1.7911572643544083
    11   1     0.50769881911192083      22.503214996153421      3.5823144663782704
    12   1      6.1218874757214712      21.657387874726435      3.5823144664110242
    13   1      7.7192396750373025      24.923535414711157      3.5823144687239736
    14   1      1.1091984356555313      16.256008114286352      1.7911571707357208
    15   1      2.2495059539201958      17.482398495669688      3.5823144971331886
    16   1      2.9176814904196844      19.076941035066433      1.7911572169175953
    17   1      2.1145525419414639      21.657387793903386      1.7911572581786632
    18   1      3.7154852935300036      20.862473409382027      3.5823144675120067
    19   1      1.3342545290204515      19.984950698565939      3.5823144700304277
    20   1      4.5150336060113618      22.503215135816667      1.7911572615396649
    21   1       3.711904918390065      24.923535392663101      1.7911572656925514
    22   1      5.3138339837355382      24.179668118363903      3.5823144684768593
    23   1      2.8974827835814296      23.341556748203974       3.582314468099014
    24   1      1.3064992326411602      24.179668119226832      1.7911572653555909
    25   1      6.9257821612058104      13.432842194415569  7.6311330909125459e-08
    26   1      6.2570306954905632      15.027789751102988      1.7911571537800939
    27   1      6.8791443638932659      5.0600492086765039 -6.1460224702132392e-09
    28   1      5.2858020295863151      8.3175146136441107  8.9567699037256544e-10
    29   1      6.8970219317534882      9.1491575182571356      1.7911572071718327
    30   1      6.0692294309524977      6.6462384550387839      1.7911571979793299
    31   1      6.1203772616734504      10.850420596633287  2.0099077776323307e-08
    32   1      3.7146751637277302      11.650915588607292   2.484951434927775e-08
    33   1       5.341036629811132      12.523376064996301       1.791157211118497
    34   1      4.5060095228004808       10.00326790408571      1.7911572131469535
    35   1       4.498597480232033      14.061755188873876  7.9408315640144233e-08
    36   1      2.2496977807597527      15.027788427649847  8.4011912714077729e-08
    37   1      2.9184462813977499      13.432843082484396      1.7911572018652036
    38   1      4.4748403918456683      5.8033114059256432 -5.8493119541456979e-09
    39   1      2.0618946719079427      6.6462384572837294 -4.7621733299587974e-09
    40   1      3.6781098133977599      7.4792543919426198      1.7911572005706633
    41   1      2.8718096053830995      5.0600492092886595      1.7911571966275348
    42   1      2.8896871711004271      9.1491575367534583  4.9518056425305594e-09
    43   1     0.49867480041786671      10.003267770852839  1.2156438513107543e-08
    44   1      2.1130426783146774       10.85042048967375      1.7911572178537121
    45   1      1.2784672676762829      8.3175146147802863      1.7911572034692222
    46   1      1.3337014027105594      12.523377017017323  4.1129095783363225e-08
    47   1     0.49126237632478775      14.061749595142889      1.7911572015597232
    48   1      7.7220099991277493      11.650916395853629      1.7911572174947143
    49   1     0.46750563312796883      5.8033114052347097      1.7911571969272404
    50   1       7.685444574512176      7.4792543998056553 -2.1316688406980848e-09
    51   1     0.48984947585724142      18.449634063877792      5.3734716231286788
    52   1      7.6294482366037641      16.255159970028462  1.0942362726411944e-07
    53   1      3.6221135744511788      16.255158327774748      5.3734715313573842
    54   1      5.1165333075453878       16.25600045173671  1.9768142155057012e-07
    55   1      6.2568423582903101      17.482399351074768      5.3734715663900277
    56   1      5.3415888557679008      19.984949816506859      5.3734716390837587
    57   1      6.9250152099148528      19.076940306868124  9.3294181583716632e-08
    58   1      4.4971836875899465       18.44963959797575  9.6009019342682398e-08
    59   1      7.7228199648987257      20.862474193303623      5.3734716597594554
    60   1      6.9048175338047226      23.341556732234199      5.3734716699591791
    61   1     0.50769881913041481       22.50321499612599  6.1056425602468788e-08
    62   1      6.1218874756537938      21.657387874589876  6.1232975162940438e-08
    63   1      7.7192396750423207      24.923535414712266  6.3099540292065948e-08
    64   1      1.1091984357712306      16.256008118208747      5.3734715762898064
    65   1      2.2495059538865294      17.482398495785741  9.3751411948356046e-08
    66   1      2.9176814888649836      19.076941032759805      5.3734716221927812
    67   1      2.1145525416888673      21.657387793407661      5.3734716636471358
    68   1      3.7154852934484035      20.862473409607286  6.1180571243511374e-08
    69   1       1.334254529181061      19.984950698502203  6.5106713430094525e-08
    70   1       4.515033606088199      22.503215135713273       5.373471667046994
    71   1      3.7119049184172335      24.923535392665027      5.3734716712835358
    72   1      5.3138339837369566      24.179668118331445  6.2903267388657236e-08
    73   1      2.8974827835798602       23.34155674819641  6.2404702315543331e-08
    74   1      1.3064992326441418      24.179668119118833       5.373471670931786
    75   1      6.9257821608228793       13.43284219496411      3.5823144830361118
    76   1      6.2570306955563701      15.027789751519013      5.3734715598850791
    77   1      6.8791443639095844      5.0600492086849869      3.5823143994281503
    78   1      5.2858020295857067      8.3175146136632883      3.5823144064805499
    79   1      6.8970219317744004      9.1491575183263532      5.3734716127074895
    80   1      6.0692294309742243      6.6462384550554674      5.3734716035469337
    81   1      6.1203772616173167      10.850420596751274      3.5823144260761963
    82   1      3.7146751636583453      11.650915588376831      3.5823144297231631
    83   1      5.3410366292052585      12.523376064777082      5.3734716168703587
    84   1      4.5060095227123904      10.003267903949107      5.3734716187839533
    85   1      4.4985974798475405      14.061755188262207      3.5823144845812136
    86   1       2.249697780748777       15.02778842754088      3.5823144916531535
    87   1      2.9184462828738673      13.432843080315088      5.3734716077432783
    88   1      4.4748403918469455      5.8033114059194082       3.582314399744329
    89   1       2.061894671896102      6.6462384572686277      3.5823144007955938
    90   1      3.6781098133955643       7.479254391905644      5.3734716061341183
    91   1      2.8718096053630413      5.0600492092738554      5.3734716022080109
    92   1       2.889687171095991      9.1491575367341103      3.5823144103739155
    93   1     0.49867480044218782      10.003267770888392      3.5823144179564035
    94   1      2.1130426785271634      10.850420489212778      5.3734716235356137
    95   1      1.2784672676894193      8.3175146147101024      5.3734716090440511
    96   1      1.3337014028768845      12.523377017074235      3.5823144473639741
    97   1       0.491262377761925      14.061749597310991       5.373471607023907
    98   1      7.7220099994043343      11.650916396720675       5.373471622886294
    99   1      0.4675056331261308      5.8033114052307546      5.3734716025201248
   100   1      7.6854445745142872      7.4792543998159431      3.5823144034347973
