(written by ASE)

228 atoms
1 atom types

0.0      17.911572027868289  xlo xhi
0.0                      30  ylo yhi
0.0      7.1646288111473151  zlo zhi

Atoms # atomic

     1   1      1.4291632538929175      16.199093197347473      1.7911648394766013
     2   1    0.013098008003059328      13.476789168717207  9.3987534431470639e-06
     3   1      14.207718646298012      14.999999794876185      1.7911657896018736
     4   1      15.455858979766726      13.684741453682356  8.6191253234127446e-06
     5   1      12.897095081002558      13.725005555799713  8.5586465515376487e-06
     6   1      16.913217002785682      15.000000013913754      1.7911656116033428
     7   1      16.711310522377669      17.723499618768184      1.7911655776263331
     8   1    0.013097120520908469      16.523211331496917   9.259784731493459e-06
     9   1      15.455858267699066      16.315258489189862  8.5929247537018064e-06
    10   1      1.1460667075101365      18.556702036326275      1.7911653410927466
    11   1      1.0070909175720899       21.04695106051868      1.7911656224609589
    12   1      17.794851371767397      19.320223102140847  8.7600816568068511e-06
    13   1      8.9688839803601859      13.476789189648052      1.7911663276991976
    14   1      11.534721015081205      15.000000188271128      1.7911661532260037
    15   1      11.467351434084181      17.542975055899884      1.7911659962276854
    16   1      12.897094212648584      16.274993519479537  8.5241083534842474e-06
    17   1      10.384949204170274      16.199093229651712   7.989911557700978e-06
    18   1      14.137948452037184      17.591970212140538       1.791165753353803
    19   1      13.940272446223258      20.200346199866221      1.7911656981892858
    20   1      15.311589285017057      18.984960134349738  8.5314839144463053e-06
    21   1      12.739067281507864      18.825443295884455   8.462184177768583e-06
    22   1       16.49285355306338       20.42576146365764      1.7911656623291385
    23   1      16.119757678089215      23.129681523569964      1.7911656615741371
    24   1      17.515314189126311      22.009408771560828  8.4816495900495691e-06
    25   1      15.034012604590792      21.649308544666578  8.4778419095838342e-06
    26   1     0.68617581067878675      23.595576857957788      1.7911656531281914
    27   1      1.7680349647309801      25.042518890634035  8.4503151539539273e-06
    28   1      17.170638737204239      24.622629256555861   8.454434338107534e-06
    29   1      3.9413090849117904      13.725005585617549      1.7911657385810977
    30   1      6.5000729772719659      13.684741478856418      1.7911658136133428
    31   1      6.5000722431538085      16.315258514235499      1.7911657873462494
    32   1      7.9574309891032744      15.000000022003555  8.4750116869086186e-06
    33   1       5.251932632284424      14.999999822207592  8.5980660776270089e-06
    34   1      8.9688831745020892      16.523211352042203      1.7911661868190825
    35   1      8.8390653120547196      19.320223128576483      1.7911658669109163
    36   1       10.10185277231408      18.556701940566654  8.2907782981710593e-06
    37   1      7.7555245049667008       17.72349963792465  8.4436436042386161e-06
    38   1      11.340385235749501      20.004955070933836      1.7911657056989256
    39   1       11.06571695950805      22.513454435935319      1.7911656610713342
    40   1      12.509024409975796      21.386698967808222   8.458938524966252e-06
    41   1      9.9628769012114784      21.046951109369694  8.4389907385148716e-06
    42   1      13.615169204850375      22.819331373603347      1.7911656622965699
    43   1      13.246924726233084      25.336672083792639      1.7911656523004507
    44   1      14.689791320444698      24.291705019084059  8.4531658696123468e-06
    45   1      12.158985202989856      23.953704687294806  8.4491126808913831e-06
    46   1      2.5789350017388029      15.000000259424636  9.1651466513046876e-06
    47   1      3.9413081810599437      16.274993548870807      1.7911657039523003
    48   1      3.7832812713468229      18.825443324336486      1.7911656378619056
    49   1      5.1821624372421162      17.591970240918052  8.5601231974465013e-06
    50   1      2.5115654418338145      17.542975016893202  8.9601709488469468e-06
    51   1      6.3558032797662145      18.984960164614321      1.7911657308109494
    52   1      6.0782265739055577      21.649308574633004      1.7911656805660578
    53   1      7.5370675586692633      20.425761473301876  8.4825502959861214e-06
    54   1      4.9844864257610109      20.200346228125603  8.5010867639160646e-06
    55   1      8.5595281995070938      22.009408766753619      1.7911656774742173
    56   1      8.2148527232299386      24.622629272996601      1.7911656551912909
    57   1      9.6419618390647397      23.595576842991836  8.4492955023168722e-06
    58   1      7.1639716428296687      23.129681555308245  8.4599780927819038e-06
    59   1      10.723820991032147      25.042518873845314      1.7911656504757361
    60   1      2.3845991895391299      20.004955131773631  8.5233860287645245e-06
    61   1      3.5532383800230298      21.386698988409417      1.7911656601779551
    62   1      3.2031991876596795      23.953704713270973      1.7911656537353038
    63   1      4.6593831888574879      22.819331404274738   8.462265041404061e-06
    64   1      2.1099309528354122      22.513454440125695  8.4630956820293469e-06
    65   1      5.7340053060739251       24.29170505034643      1.7911656577498682
    66   1      4.2911387009112714      25.336672110934479  8.4519835392956944e-06
    67   1      1.4291642353642233      13.800906814638854      1.7911648300257768
    68   1      10.384950314400825      13.800906850814199  7.9785509815277779e-06
    69   1      17.794853183355496      10.679777070836831  8.9246723144753655e-06
    70   1      16.711311839098688      12.276500456998962      1.7911656301837711
    71   1       17.17064199730153      5.3773709756594013  8.7100595213833153e-06
    72   1      17.515317152451225      7.9905915262996059  8.7147728725388458e-06
    73   1       15.03401539165349      8.3506916341630752  8.6868097033666498e-06
    74   1      16.492855902941152       9.574238670557115      1.7911657910796448
    75   1      16.119760858110343       6.870318743470734      1.7911658999838522
    76   1      15.311591191741128      11.015039950222386  8.6514476822895589e-06
    77   1      12.739068669986823      11.174556105886513  8.6071064137180057e-06
    78   1       14.13794965907004      12.408029330562503      1.7911658263229036
    79   1       13.94027465434055      9.7996536969083543      1.7911658777146509
    80   1      2.5115665464407328      12.457024905996754  9.1060558479395429e-06
    81   1      14.689794600138159      5.7082951819237255  8.7065660211528565e-06
    82   1      12.158988404961088      6.0462952814381028  8.7082585873493468e-06
    83   1       13.61517224610769       7.180668690574068      1.7911659045795543
    84   1      13.246928082039647      4.6633279781490415      1.7911659126586694
    85   1      12.509026883578118      8.6133008991082605  8.6901573062028298e-06
    86   1      9.9628792763420897      8.9530489934652735  8.6535548270272204e-06
    87   1      11.340386976417351      9.9950447027395697      1.7911659266446123
    88   1      11.065719817792155      7.4865454593537999      1.7911659133348019
    89   1      10.101854091407953      11.443298124238655   8.360197423552886e-06
    90   1      7.7555258286265385      12.276500476303504  8.4956913733163776e-06
    91   1      8.8390672166940139      10.679777097585147      1.7911660324299548
    92   1      10.723824245530107      4.9574810889261673      1.7911659145220367
    93   1      9.6419650104622328      6.4044231749541218   8.706611881895706e-06
    94   1      7.1639748658494566       6.870318775741862  8.6984237501179506e-06
    95   1      8.5595311139713903       7.990591521262874      1.7911659107692912
    96   1      8.2148559833597634      5.3773709922804471      1.7911659109925251
    97   1      7.5370698693473539      9.5742386801889161  8.6110191918088267e-06
    98   1      4.9844886471203989      9.7996537258391321  8.6805446415549681e-06
    99   1      6.3558051690693933      11.015039980989943      1.7911658508284016
   100   1        6.07822939488522      8.3506916647338461      1.7911658895471261
   101   1      5.1821636462847707      12.408029359509623  8.6330473432729755e-06
   102   1      11.467352583265178      12.457024944420917      1.7911661432659944
   103   1      3.7832826525438255      11.174556134379474      1.7911657830080039
   104   1      4.2911420796535182      4.6633280061594204  8.7122386269991968e-06
   105   1       5.734008586609872      5.7082952139742629      1.7911659110872913
   106   1      4.6593862343556776      7.1806687220902115   8.704456912386246e-06
   107   1      2.1099337963679909      7.4865454642193532  8.7151854826383516e-06
   108   1      3.5532408858026288      8.6133009203281556      1.7911658913486832
   109   1      3.2032023924635391      6.0462953081552726       1.791165912762239
   110   1      2.3846009952991221      9.9950447641743985  8.7440628949752518e-06
   111   1      1.1460681292553758      11.443298223664859      1.7911654117075675
   112   1      1.0070932315789698      8.9530489434293923       1.791165837113206
   113   1      1.7680382441956923      4.9574811062522928  8.7141910277824612e-06
   114   1     0.68617901109018942      6.4044231903868498        1.79116591028631
   115   1      1.4291632538943104        16.1990931973437      5.3734792450446243
   116   1    0.013098008003951143      13.476789168714214      3.5823238043290506
   117   1      14.207718646309132       14.99999979487513      5.3734801951753877
   118   1      15.455858979766676      13.684741453684598       3.582323024688165
   119   1      12.897095080997493        13.7250055558002      3.5823229642105692
   120   1      16.913217002787505      15.000000013913318      5.3734800171771422
   121   1      16.711310522381623      17.723499618768955      5.3734799831978837
   122   1    0.013097120519710985      16.523211331493226      3.5823236653581167
   123   1      15.455858267698908      16.315258489192768      3.5823229984857439
   124   1      1.1460667075125159      18.556702036318011      5.3734797466134747
   125   1      1.0070909175958145      21.046951060499712        5.37348002800766
   126   1       17.79485137171844        19.3202231021716      3.5823231656592998
   127   1      8.9688839803584735      13.476789189653408      5.3734807332773036
   128   1      11.534721015089332      15.000000188262991      5.3734805587995327
   129   1      11.467351434202293      17.542975055838106      5.3734804018091209
   130   1      12.897094212653826      16.274993519480304      3.5823229296672627
   131   1      10.384949204179026      16.199093229660665      3.5823223954985046
   132   1      14.137948452059685      17.591970212133102       5.373480158933492
   133   1      13.940272446212392      20.200346199840087      5.3734801037680295
   134   1      15.311589284996504      18.984960134355166       3.582322937052338
   135   1      12.739067281504608      18.825443295879651      3.5823228676884842
   136   1      16.492853553066261       20.42576146366563       5.373480067950462
   137   1      16.119757678072183      23.129681523597014      5.3734800671603677
   138   1      17.515314189108697      22.009408771583349      3.5823228872540498
   139   1      15.034012604590265      21.649308544662478      3.5823228834376795
   140   1     0.68617581067262123      23.595576857954189      5.3734800586983971
   141   1      1.7680349647301739      25.042518890632682      3.5823228558946698
   142   1      17.170638737199813      24.622629256558934      3.5823228599989352
   143   1      3.9413090849136432       13.72500558561622      5.3734801441509967
   144   1      6.5000729772708015      13.684741478851592      5.3734802191844349
   145   1      6.5000722431502318      16.315258514243745      5.3734801929235498
   146   1      7.9574309891033526      15.000000022005255       3.582322880582363
   147   1       5.251932632284908      14.999999822207622      3.5823230036431806
   148   1      8.9688831744979129      16.523211352033041      5.3734805923883489
   149   1      8.8390653119090388      19.320223128668825      5.3734802724824284
   150   1       10.10185277231966      18.556701940571504      3.5823226965081525
   151   1      7.7555245049703645      17.723499637928565      3.5823228492222099
   152   1      11.340385235855322      20.004955070882986      5.3734801112655672
   153   1      11.065716959517172       22.51345443591898       5.373480066642184
   154   1      12.509024409975382      21.386698967809341      3.5823228644887029
   155   1      9.9628769012027796      21.046951109377261      3.5823228446581408
   156   1      13.615169204839873      22.819331373597141      5.3734800678688348
   157   1      13.246924726239229      25.336672083787231      5.3734800578759296
   158   1      14.689791320444044      24.291705019080734      3.5823228587297331
   159   1      12.158985202987681      23.953704687300259      3.5823228546853354
   160   1       2.578935001739231      15.000000259411182      3.5823235707188013
   161   1      3.9413081810604926      16.274993548878086      5.3734801095311253
   162   1       3.783281271324312      18.825443324349258      5.3734800434564933
   163   1      5.1821624372503097      17.591970240915273       3.582322965688006
   164   1      2.5115654418745375      17.542975016869541      3.5823233657414022
   165   1      6.3558032797031467       18.98496016463465      5.3734801363876841
   166   1      6.0782265738993049      21.649308574618672      5.3734800861343164
   167   1      7.5370675586653109      20.425761473301993      3.5823228879800935
   168   1      4.9844864257563533       20.20034622811718        3.58232290663631
   169   1      8.5595281994438501      22.009408766830056      5.3734800830579701
   170   1      8.2148527232202664      24.622629273004012      5.3734800607705848
   171   1      9.6419618390653863      23.595576842999801      3.5823228548774591
   172   1       7.163971642836569      23.129681555304771      3.5823228655054846
   173   1      10.723820991034724      25.042518873840784      5.3734800560598108
   174   1       2.384599189567862      20.004955131755551      3.5823229289331882
   175   1      3.5532383800181413      21.386698988405559      5.3734800657564703
   176   1      3.2031991876561703      23.953704713262916      5.3734800593085144
   177   1      4.6593831888578752       22.81933140427342      3.5823228678394194
   178   1      2.1099309528391754      22.513454440119869      3.5823228686674202
   179   1      5.7340053060790526      24.291705050326428      5.3734800633189206
   180   1      4.2911387009089461      25.336672110935954      3.5823228575728021
   181   1      1.4291642353691256      13.800906814636555      5.3734792356040977
   182   1      10.384950314392054      13.800906850822857      3.5823223841309777
   183   1      17.794853183392316      10.679777070859734      3.5823233302504338
   184   1      16.711311839102706      12.276500456995889      5.3734800357590835
   185   1      17.170641997304639      5.3773709756615782       3.582323115619412
   186   1      17.515317152463886       7.990591526315928      3.5823231203679193
   187   1      15.034015391653579      8.3506916341601549      3.5823230923996672
   188   1      16.492855902942487      9.5742386705492244      5.3734801966177859
   189   1      16.119760858099639      6.8703187434489728      5.3734803055483065
   190   1      15.311591191756637      11.015039950226109      3.5823230570175517
   191   1      12.739068669990012      11.174556105881745      3.5823230126343217
   192   1      14.137949659085898      12.408029330567134      5.3734802318915769
   193   1       13.94027465433286      9.7996536969261996      5.3734802832853168
   194   1      2.5115665464099028      12.457024905978088      3.5823235116230312
   195   1      14.689794600138475      5.7082951819210397      3.5823231121318253
   196   1      12.158988404962564      6.0462952814414521      3.5823231138312739
   197   1      13.615172246101015      7.1806686905778969      5.3734803101540427
   198   1      13.246928082044086      4.6633279781532258      5.3734803182315591
   199   1      12.509026883578292      8.6133008991090438      3.5823230957151453
   200   1      9.9628792763484899      8.9530489934712456      3.5823230591889703
   201   1      11.340386976486526      9.9950447027708407      5.3734803322235676
   202   1      11.065719817798637      7.4865454593638665      5.3734803189102367
   203   1      10.101854091402455      11.443298124242851      3.5823227658714853
   204   1      7.7555258286233544      12.276500476307481      3.5823229012684772
   205   1       8.839067216599954      10.679777097524859      5.3734804380059034
   206   1      10.723824245531908      4.9574810889288772      5.3734803200887535
   207   1      9.6419650104618064      6.4044231749597627      3.5823231121913168
   208   1       7.163974865844418      6.8703187757395439      3.5823231039680583
   209   1      8.5595311139311683      7.9905915212131928      5.3734803163354004
   210   1      8.2148559833530665      5.3773709922752246      5.3734803165620679
   211   1      7.5370698693505354      9.5742386801897563      3.5823230164989024
   212   1      4.9844886471238263      9.7996537258329379      3.5823230861041253
   213   1      6.3558051690288302      11.015039980976791      5.3734802563997075
   214   1      6.0782293948821513      8.3506916647428078      5.3734802951247049
   215   1      5.1821636462784308      12.408029359507484      3.5823230386160017
   216   1      11.467352583340578      12.457024944457524      5.3734805488318411
   217   1      3.7832826525278525      11.174556134374884      5.3734801885665613
   218   1      4.2911420796549695      4.6633280061605298      3.5823231178178814
   219   1      5.7340085866120445      5.7082952139847603      5.3734803166640006
   220   1      4.6593862343552708      7.1806687220894938      3.5823231100335393
   221   1      2.1099337963653535      7.4865454642148768      3.5823231207620627
   222   1      3.5532408858005233      8.6133009203322146       5.373480296919344
   223   1      3.2032023924596871      6.0462953081545256      5.3734803183363304
   224   1      2.3846009952788885      9.9950447641604718      3.5823231496193548
   225   1      1.1460681292603341      11.443298223668661      5.3734798173211082
   226   1      1.0070932315947076      8.9530489434405816      5.3734802427062771
   227   1      1.7680382441961795      4.9574811062512456      3.5823231197596384
   228   1     0.68617901108486123      6.4044231903819968      5.3734803158624329
