(written by ASE)

144 atoms
1 atom types

0.0      11.323756553211647  xlo xhi
0.0                      30  ylo yhi
0.0      7.1646288111473151  zlo zhi

Atoms # atomic

     1   1      1.7171248640609675      18.903494387783656      2.2491242887296798
     2   1      1.1534653841654985      17.137359891323296     0.45796676812375098
     3   1      2.2650911344575446      20.721417625823975     0.45796697310394707
     4   1      8.4981074711980931      16.543408347868759      2.2491274034573321
     5   1      10.815352316974028      17.746362951103446      2.2491250191325607
     6   1      9.6333806281164609      20.122809530051367      2.2491243482225154
     7   1    0.022946863529258909       19.53231630824903     0.45796687810129644
     8   1      9.0716499429773449      18.396250300327491     0.45796648507552351
     9   1     0.55972520645271895      21.304330839211406      2.2491242233539563
    10   1      10.723041322629252      23.666494256348521      2.2491242036295587
    11   1      1.1111406935200112      23.077633405934233     0.45796698057912821
    12   1      10.175048670760486      21.908766243962273      0.4579669689631059
    13   1      1.6724405178804047      24.830614281225454      2.2491241966083448
    14   1   -0.024419715010256918      25.348860774113682     0.45796698370903377
    15   1      5.1534738004113017      17.746362989607825      2.2491248070926382
    16   1      6.8153441192280866      17.137359665830811     0.45796564049742255
    17   1      7.3790033344392469      18.903494408118355      2.2491245966338753
    18   1      6.2216034357462648      21.304330843608067      2.2491242330495367
    19   1      7.9269694766167946      20.721417622274245     0.45796692995344146
    20   1      5.6848250268435523      19.532316342603355     0.45796684050653386
    21   1      8.4704919280811151      22.502108191177808      2.2491242088829582
    22   1      7.3343187865128217      24.830614281245449       2.249124197341926
    23   1      9.0236617103410985      24.279479758272867     0.45796698175329786
    24   1      6.7730189537736845      23.077633410554505     0.45796697601557079
    25   1      2.8362294819611575      16.543408359923383      2.2491241279328489
    26   1      3.4097718148038219      18.396250225048888      0.4579669173805776
    27   1       3.971502441764942      20.122809523411455       2.249124259584121
    28   1      2.8086136244981805      22.502108192470036      2.2491242031175416
    29   1      4.5131704267971742      21.908766236630388     0.45796697324314767
    30   1       5.061163055583715      23.666494250833132      2.2491242019314099
    31   1      5.6374585612999759       25.34886076700035     0.45796698298357813
    32   1      3.3617834244517515      24.279479754609106     0.45796698258406254
    33   1      10.228024167629076      13.835488003451349     0.45796577085955859
    34   1      10.815356182993886      12.253639272170787      2.2491248515324909
    35   1      10.228022798446501      16.164513842912452     0.45796558155951489
    36   1      9.0236709248210456      5.7205225796681844     0.45796706433897277
    37   1      10.723050345404197      6.3335080534573871      2.2491242683188832
    38   1       10.17505723284326      8.0912358401654423     0.45796705205472849
    39   1      7.9269774090692957      9.2785846241646208     0.45796701588719996
    40   1      9.6333878886021953      9.8771924828063433      2.2491243569284447
    41   1      8.4705008076919288      7.4978942480207316      2.2491242698163028
    42   1      9.0716552683311136      11.603750816593751     0.45796662305964381
    43   1      6.8153454100558184      12.862641881482048     0.45796584259187728
    44   1      8.4981092859620073      13.456593654852396      2.2491271862416982
    45   1      7.3790086890345394      11.096508800285029      2.2491245604583674
    46   1      7.9706608621794297      15.000002266512208     0.45796376540729339
    47   1      6.1677959060557299       15.00000133228415       2.249125260395918
    48   1      5.6374677505955733      4.6511414933043005     0.45796706509154533
    49   1      7.3343279176219545      5.1693879752790792      2.2491242678213452
    50   1      6.7730279054564777      6.9223688291217798     0.45796705968522905
    51   1       4.513179109501487      8.0912358468423573     0.45796705625866768
    52   1      6.2216116783081938        8.69567149888573      2.2491242783391594
    53   1      5.0611722228030755      6.3335080286787875      2.2491242667009623
    54   1      5.6848320596420345      10.467685367755061     0.45796694886153722
    55   1      3.4097770848236593      11.603750817783638     0.45796705536408644
    56   1      5.1534778695472028      12.253639213482149      2.2491246393132389
    57   1      3.9715097234065189      9.8771924896504455      2.2491242682047221
    58   1      4.5661456935985614      13.835488078412451     0.45796692351233176
    59   1      2.3087827786130983       15.00000192108266     0.45796732203884083
    60   1      4.5661442294110728      16.164513812649247     0.45796673441664454
    61   1       2.836231034358875      13.456593790754289      2.2491239105965137
    62   1      3.3617925173642571      5.7205225686162722     0.45796706497450068
    63   1      1.1111498003722711      6.9223688662308627      0.4579670640572715
    64   1      2.8086223456287063      7.4978942410748566      2.2491242638673241
    65   1       1.672449741811723      5.1693879944445893      2.2491242668317741
    66   1      2.2650989934150663      9.2785846179560725     0.45796705897987305
    67   1    0.022953898190409751      10.467685368650313     0.45796698656176238
    68   1       1.717130314776885      11.096508764715123       2.249124252613881
    69   1     0.55973354895233751      8.6956715076571278      2.2491242686468649
    70   1      1.1534670626882229      12.862641969719093     0.45796697034529943
    71   1      0.5059175303040796      15.000001294338826      2.2491243867568249
    72   1   -0.024410596362700265      4.6511414507242463     0.45796706559533767
    73   1      1.7171248640625394      18.903494387783041      5.8314386943035785
    74   1       1.153465384165554      17.137359891323371      4.0402811736952344
    75   1      2.2650911344577205      20.721417625823943      4.0402813786818736
    76   1      8.4981074712002762      16.543408347867643      5.8314418090310003
    77   1      10.815352316975742      17.746362951101698      5.8314394247062769
    78   1      9.6333806281139065      20.122809530051768      5.8314387537959789
    79   1    0.022946863529474362      19.532316308248969      4.0402812836773254
    80   1      9.0716499429774835      18.396250300327456      4.0402808906507479
    81   1     0.55972520644870905      21.304330839212376      5.8314386289274509
    82   1      10.723041322640869      23.666494256336531      5.8314386092033166
    83   1       1.111140693519916      23.077633405934225      4.0402813861423628
    84   1      10.175048670760338      21.908766243962294       4.040281374528889
    85   1      1.6724405178933406      24.830614281217919      5.8314386021822555
    86   1   -0.024419715010023598      25.348860774113604      4.0402813892973155
    87   1       5.153473800409313      17.746362989609498      5.8314392126662513
    88   1      6.8153441192279631      17.137359665830822      4.0402800460735522
    89   1      7.3790033344376313      18.903494408118878      5.8314390022072988
    90   1      6.2216034357503069      21.304330843607051      5.8314386386233537
    91   1      7.9269694766166205      20.721417622274288      4.0402813355227689
    92   1      5.6848250268433587       19.53231634260338      4.0402812460778961
    93   1      8.4704919280879309      22.502108191173697      5.8314386144567614
    94   1      7.3343187864997921       24.83061428125302      5.8314386029153731
    95   1      9.0236617103412957      24.279479758272817      4.0402813873438781
    96   1      6.7730189537738008      23.077633410554501       4.040281381599593
    97   1      2.8362294819592946      16.543408359924346       5.831438533506625
    98   1      3.4097718148036589      18.396250225048995      4.0402813229526142
    99   1      3.9715024417674241      20.122809523411075       5.831438665157969
   100   1      2.8086136244913198       22.50210819247415      5.8314386086910623
   101   1      4.5131704267973207       21.90876623663036      4.0402813788247354
   102   1      5.0611630555721598      23.666494250845087      5.8314386075049436
   103   1      5.6374585612997796      25.348860767000417      4.0402813885425264
   104   1      3.3617834244515334      24.279479754609209      4.0402813881409028
   105   1      10.228024167628949      13.835488003451511      4.0402801764333862
   106   1      10.815356182993472      12.253639272170487      5.8314392571063021
   107   1      10.228022798446556      16.164513842912186      4.0402799871309956
   108   1      9.0236709248210207      5.7205225796681463      4.0402814699128164
   109   1      10.723050345404312      6.3335080534575026      5.8314386738925164
   110   1      10.175057232843262      8.0912358401654441      4.0402814576283399
   111   1      7.9269774090693019      9.2785846241646066      4.0402814214608957
   112   1      9.6333878886022308      9.8771924828064162       5.831438762502108
   113   1      8.4705008076919803      7.4978942480207866      5.8314386753899603
   114   1      9.0716552683310283      11.603750816593688      4.0402810286330597
   115   1      6.8153454100558628      12.862641881482066      4.0402802481653097
   116   1      8.4981092859618261      13.456593654852568       5.831441591815314
   117   1      7.3790086890346824      11.096508800285253      5.8314389660320671
   118   1      7.9706608621795221      15.000002266512091      4.0402781709805371
   119   1      6.1677959060558596      15.000001332284167      5.8314396659695849
   120   1      5.6374677505956106      4.6511414933043058      4.0402814706650387
   121   1      7.3343279176218124      5.1693879752789975       5.831438673395045
   122   1       6.773027905456483       6.922368829121778      4.0402814652589916
   123   1      4.5131791095014906      8.0912358468423609      4.0402814618323823
   124   1      6.2216116783082063      8.6956714988857513      5.8314386839128307
   125   1      5.0611722228029663      6.3335080286786667       5.831438672274615
   126   1      5.6848320596420745      10.467685367755047      4.0402813544354492
   127   1      3.4097770848237126      11.603750817783709      4.0402814609379432
   128   1      5.1534778695473324      12.253639213482554      5.8314390448868432
   129   1      3.9715097234064234      9.8771924896503833      5.8314386737783623
   130   1      4.5661456935985631      13.835488078412475      4.0402813290854462
   131   1      2.3087827786130388      15.000001921082566      4.0402817276128893
   132   1      4.5661442294110453      16.164513812649432      4.0402811399921283
   133   1      2.8362310343593902      13.456593790754262      5.8314383161700283
   134   1      3.3617925173642673      5.7205225686162571      4.0402814705480061
   135   1      1.1111498003722768      6.9223688662308627      4.0402814696308313
   136   1      2.8086223456286423      7.4978942410748193      5.8314386694409759
   137   1      1.6724497418118376       5.169387994444655      5.8314386724054357
   138   1      2.2650989934150552      9.2785846179560849      4.0402814645534582
   139   1    0.022953898190371719      10.467685368650312      4.0402813921352223
   140   1      1.7171303147766854      11.096508764714995       5.831438658187488
   141   1     0.55973354895233218       8.695671507657142      5.8314386742205135
   142   1      1.1534670626883612      12.862641969719149      4.0402813759194887
   143   1     0.50591753030389452      15.000001294338816      5.8314387923304842
   144   1   -0.024410596362697493      4.6511414507242419      4.0402814711691173
