(written by ASE)

224 atoms
1 atom types

0.0       18.11711715645523  xlo xhi
0.0                      30  ylo yhi
0.0      7.1063262862993364  zlo zhi

Atoms # atomic

     1   1      14.521436158452111      16.543628132144896  8.3772520630848035e-08
     2   1      15.264653970618724        19.9175186892681  8.5028136493767761e-08
     3   1      14.836775012257121      18.186166012897392      1.7765816570464685
     4   1       15.63640670898222      21.772281271844765      1.7765816566974089
     5   1      12.448135861392259      14.999999996952042  8.4573195783120452e-08
     6   1       10.90645329546334      16.961280786160103  8.5165878368472663e-08
     7   1      12.584646429210709      16.834004496590865      1.7765816568139974
     8   1      10.667572015911755      14.999999997967853      1.7765816567069783
     9   1      13.019558983494429      18.583495547140704  8.5027766128943227e-08
    10   1      11.746260945175164      20.770907200547409  8.5114800882069003e-08
    11   1      13.493932121760395      20.359405755194206      1.7765816566855446
    12   1      11.318348567434176      18.952329347890984      1.7765816566533377
    13   1      13.909222586655206      22.157040259725285  8.5111940620521152e-08
    14   1      12.514056070542237        24.3084393266024  8.5120978037763268e-08
    15   1      14.251164974849496      23.938633371153312      1.7765816567068282
    16   1      12.148643836899147      22.547805186698966      1.7765816566898134
    17   1      8.8607371915624764      15.000000000205995  8.5093234113443051e-08
    18   1      7.7244971745622619      17.760660549782585  8.5222541443893106e-08
    19   1      9.3929829308546768      17.266528090126592      1.7765816565104693
    20   1       7.266896727191404      16.175341294739258      1.7765816564750629
    21   1      9.6952855895857066      19.258256082289304  8.5120741242819225e-08
    22   1      8.2803982457892804      21.438534510495426  8.5116567667996147e-08
    23   1      9.9968010228651885      21.121759240816694      1.7765816566781167
    24   1      7.9805088662513839      19.536207536554336      1.7765816566254842
    25   1      10.391628080075106      22.913152846590869  8.5125927786616235e-08
    26   1      9.0860370149597323      24.972215041403892  8.5132627962760738e-08
    27   1      10.785294915808505      24.687058736257509       1.776581656703103
    28   1      8.6386764079533265      23.298014115346007      1.7765816566954074
    29   1      3.3895772832339381      15.000000000401645  8.5482450336159665e-08
    30   1      5.4628775793277287      16.543628132735609   8.613546126958347e-08
    31   1      3.9610004036227582       18.58349554925779   8.514170017162377e-08
    32   1       5.778216433483542      18.186166015487537      1.7765816563373213
    33   1      3.5260878510928517      16.834004497183045      1.7765816565125729
    34   1      6.2060953916319459      19.917518688510256  8.5150171161629361e-08
    35   1      4.8506640074912628      22.157040259476812  8.5116143258008521e-08
    36   1      6.5778481306016126      21.772281270384607      1.7765816566758585
    37   1      4.4353735419159861       20.35940575573926      1.7765816566655102
    38   1       6.924709779529171      23.641851636626015  8.5135065137546727e-08
    39   1      5.1926063969449165      23.938633369994154      1.7765816566939716
    40   1      5.1153849915010543      14.999999995631763      1.7765816550435127
    41   1      17.919295769638925      15.000000000162343  8.5053526860091141e-08
    42   1      1.6090134376096281      14.999999999478694      1.7765816565934727
    43   1      1.8478947157286172      16.961280787524245  8.5028393708433365e-08
    44   1     0.63672700944739369      19.258256083761783  8.5073179683543039e-08
    45   1      2.2597899864938831      18.952329350084661      1.7765816566676949
    46   1     0.33442435062255349      17.266528090500561      1.7765816567614834
    47   1      2.6877023647596663      20.770907201826386  8.5098940930504412e-08
    48   1      1.3330695007883337      22.913152848727705  8.5118603388429919e-08
    49   1      3.0900852574762254      22.547805187803839      1.7765816566943948
    50   1     0.93824244282595315       21.12175924266711      1.7765816566854935
    51   1      3.4554974924146573      24.308439326946743  8.5127596803599437e-08
    52   1       1.726736337297492      24.687058737927863      1.7765816567008172
    53   1      16.325455306333172      16.175341293411712      1.7765816568581123
    54   1      16.783055751486504      17.760660548480857  8.4936880111591141e-08
    55   1      17.039067443701835      19.536207537865529      1.7765816567037012
    56   1      17.338956823003826      21.438534512607582  8.5107145042276267e-08
    57   1      15.983268357216501      23.641851638963882  8.5117841061455708e-08
    58   1      17.697234985367121      23.298014117978425      1.7765816567002981
    59   1      18.144595592721874      24.972215043823525  8.5132767567031119e-08
    60   1      14.173943569587038      14.999999987392247      1.7765816586256622
    61   1      17.338956836279529      8.5614654865693662  8.5021403615260285e-08
    62   1       17.69723500040773      6.7019858824251122      1.7765816565829915
    63   1      16.783055759172484      12.239339448156356  8.4920074324953257e-08
    64   1      17.039067453452112      10.463792461659956      1.7765816566620884
    65   1      16.325455305808141      13.824658711997907      1.7765816568458086
    66   1      15.983268371806959      6.3581483608030673  8.5000952631581481e-08
    67   1      13.909222599421216      7.8429597393085011  8.5017349041827501e-08
    68   1      15.636406721861407      8.2277187271689467      1.7765816566087334
    69   1      14.251164989206137      6.0613666283425234      1.7765816565886088
    70   1      15.264653981078006      10.082481311408996  8.4978859044486396e-08
    71   1      13.019558991979386      11.416504449494195  8.4993226883839611e-08
    72   1      14.836775021177408      11.813833982096646      1.7765816570232218
    73   1      13.493932132398099      9.6405942447544408      1.7765816566225385
    74   1      14.521436161259523      13.456371878313121  8.3761801604089418e-08
    75   1      12.584646439432856      13.165995507880934      1.7765816568008181
    76   1      12.514056085409646      5.6915606719490617  8.5002025385361908e-08
    77   1       10.39162809335321      7.0868471499936678  8.5018827351939102e-08
    78   1      12.148643849902061       7.452194811531518      1.7765816565880863
    79   1      10.785294930980541      5.3129412609783735      1.7765816565796626
    80   1      11.746260954876348      9.2290927981347917  8.5040644376045365e-08
    81   1       9.695285596204501      10.741743915122592  8.5077854613524561e-08
    82   1       11.31834857117672      11.047670647115163      1.7765816566137067
    83   1      9.9968010332302022      8.8782407557034837      1.7765816565986092
    84   1      10.906453294251751      13.038719209661316  8.5153061160402316e-08
    85   1      9.3929829396232485      12.733471907034254      1.7765816564956347
    86   1      9.0860370301459259      5.0277849544299729  8.5005317069702789e-08
    87   1      6.9247097929421271      6.3581483586381218  8.5024712827831832e-08
    88   1      8.6386764211166831       6.701985879651442      1.7765816565822903
    89   1      8.2803982570281232      8.5614654845290943  8.5034964674838463e-08
    90   1      6.2060954037964313       10.08248131104215  8.5105201397887078e-08
    91   1      7.9805088746692103      10.463792460519199      1.7765816565866599
    92   1      6.5778481438942213      8.2277187260685682      1.7765816565926928
    93   1       7.724497179971312      12.239339449567586  8.5206830705775534e-08
    94   1      5.4628775842567645      13.456371879015014   8.612736238124903e-08
    95   1        7.26689672882656       13.82465871335733       1.776581656464947
    96   1      5.7782164436994776      11.813833984941461      1.7765816563156789
    97   1      3.4554975074238015      5.6915606727065322  8.5012428365662149e-08
    98   1      5.1926064108158068      6.0613666275393534      1.7765816565819541
    99   1      4.8506640223128725       7.842959739547859  8.5027253578512653e-08
   100   1      2.6877023789574777      9.2290927998325074  8.5026834488071678e-08
   101   1      4.4353735559216956      9.6405942457478222      1.7765816566061021
   102   1      3.0900852731129449      7.4521948130977886      1.7765816565956511
   103   1      3.9610004155197167      11.416504451979151  8.5110125748828665e-08
   104   1      1.8478947173976166      13.038719211172277  8.5020134705030811e-08
   105   1      3.5260878611281989       13.16599550868748       1.776581656498267
   106   1      2.2597899956421874      11.047670649601516      1.7765816566277144
   107   1      18.144595609254647      5.0277849571093931  8.5002837898849686e-08
   108   1      1.7267363534495781      5.3129412630226334      1.7765816565776587
   109   1      1.3330695164795887      7.0868471524692822  8.5010849836950305e-08
   110   1     0.93824245691220454      8.8782407577909712       1.776581656604465
   111   1     0.63672701972833023      10.741743916709689  8.5030385211934573e-08
   112   1      0.3344243631419736      12.733471907451603      1.7765816567424857
   113   1       14.52143615845198      16.543628132144988      3.5531632269221722
   114   1      15.264653970618749      19.917518689268025      3.5531632281776644
   115   1      14.836775012257139      18.186166012897353      5.3297448001961829
   116   1      15.636406708982472      21.772281271844815      5.3297447998466385
   117   1      12.448135861392272      14.999999996952026      3.5531632277228771
   118   1      10.906453295463546       16.96128078616011      3.5531632283155496
   119   1      12.584646429210695      16.834004496590879      5.3297447999638043
   120   1      10.667572015911741      14.999999997967855      5.3297447998566501
   121   1      13.019558983494345      18.583495547140725       3.553163228177453
   122   1      11.746260945174868      20.770907200547409      3.5531632282648586
   123   1      13.493932121760754      20.359405755194153      5.3297447998351135
   124   1      11.318348567434191      18.952329347891084      5.3297447998030911
   125   1      13.909222586654799       22.15704025972526      3.5531632282613685
   126   1      12.514056070537908      24.308439326603313       3.553163228273982
   127   1      14.251164974853415      23.938633371152331      5.3297447998530156
   128   1      12.148643836899977      22.547805186698842      5.3297447998394469
   129   1      8.8607371915625102      15.000000000205992      3.5531632282428935
   130   1      7.7244971745621367      17.760660549782767      3.5531632283721852
   131   1      9.3929829308546715      17.266528090126606       5.329744799659947
   132   1      7.2668967271914191      16.175341294739269      5.3297447996245104
   133   1      9.6952855895857635      19.258256082289254      3.5531632282705252
   134   1      8.2803982457897742      21.438534510494989      3.5531632282661665
   135   1      9.9968010228645738       21.12175924081712       5.329744799828215
   136   1      7.9805088662512498      19.536207536554304       5.329744799775253
   137   1      10.391628080074675      22.913152846590663       3.553163228277036
   138   1      9.0860370149633614      24.972215041403754      3.5531632282784784
   139   1      10.785294915805471      24.687058736258038      5.3297447998565497
   140   1      8.6386764079504008       23.29801411534811      5.3297447998458374
   141   1      3.3895772832339275       15.00000000040162      3.5531632286321351
   142   1      5.4628775793276008      16.543628132735744      3.5531632292851096
   143   1      3.9610004036226685      18.583495549257837      3.5531632282913637
   144   1      5.7782164334835571      18.186166015487505       5.329744799487079
   145   1      3.5260878510928433      16.834004497183063      5.3297447996623264
   146   1      6.2060953916319566      19.917518688510164      3.5531632282997214
   147   1        4.85066400749088      22.157040259476783       3.553163228265583
   148   1      6.5778481306019003      21.772281270384678      5.3297447998251037
   149   1      4.4353735419163307      20.359405755739221      5.3297447998151002
   150   1      6.9247097795317227      23.641851636625645       3.553163228280642
   151   1      5.1926063969489586      23.938633369993124      5.3297447998402347
   152   1       5.115384991501065      14.999999995631779      5.3297447981930954
   153   1      17.919295769638964      15.000000000162323      3.5531632282031818
   154   1      1.6090134376096132      14.999999999478693      5.3297447997431666
   155   1      1.8478947157287444      16.961280787524238      3.5531632281780667
   156   1     0.63672700944746408      19.258256083761708      3.5531632282229908
   157   1      2.2597899864939333      18.952329350084771      5.3297447998174574
   158   1     0.33442435062255726      17.266528090500572      5.3297447999110288
   159   1      2.6877023647593674       20.77090720182639      3.5531632282489753
   160   1      1.3330695007878837      22.913152848727499      3.5531632282696703
   161   1      3.0900852574770359      22.547805187803728      5.3297447998440264
   162   1     0.93824244282537783      21.121759242667533      5.3297447998356029
   163   1      3.4554974924104265      24.308439326947628      3.5531632282807082
   164   1      1.7267363372943783      24.687058737928407      5.3297447998541667
   165   1      16.325455306333176      16.175341293411719      5.3297448000076129
   166   1      16.783055751486422      17.760660548480971      3.5531632280865231
   167   1      17.039067443701679      19.536207537865494      5.3297447998534437
   168   1      17.338956823004342      21.438534512607152      3.5531632282567687
   169   1      15.983268357219096      23.641851638963477      3.5531632282635486
   170   1       17.69723498536429      23.298014117980522       5.329744799850773
   171   1       18.14459559272542      24.972215043823361      3.5531632282785606
   172   1       14.17394356958704      14.999999987392265      5.3297448017752984
   173   1      17.338956836279642      8.5614654865694408      3.5531632281710634
   174   1      17.697235000406536      6.7019858824241947      5.3297447997328824
   175   1      16.783055759172463      12.239339448156363      3.5531632280697307
   176   1      17.039067453452059      10.463792461659978       5.329744799811758
   177   1      16.325455305808138      13.824658711997911      5.3297447999955114
   178   1      15.983268371807412      6.3581483608032388        3.55316322814895
   179   1      13.909222599421085      7.8429597393085135      3.5531632281669134
   180   1      15.636406721861519      8.2277187271689094      5.3297447997583154
   181   1      14.251164989207775      6.0613666283429311      5.3297447997375818
   182   1      15.264653981078011      10.082481311409007      3.5531632281284811
   183   1      13.019558991979407      11.416504449494191      3.5531632281428998
   184   1      14.836775021177425      11.813833982096657      5.3297448001729046
   185   1      13.493932132398246      9.6405942447544604      5.3297447997722092
   186   1      14.521436161259533      13.456371878313105      3.5531632269114759
   187   1      12.584646439432865      13.165995507880924      5.3297447999504932
   188   1      12.514056085408759      5.6915606719488689      3.5531632281530641
   189   1       10.39162809335321       7.086847149993714      3.5531632281691201
   190   1      12.148643849902424      7.4521948115315624       5.329744799737786
   191   1      10.785294930979299      5.3129412609781541      5.3297447997301326
   192   1       11.74626095487632      9.2290927981348077      3.5531632281904826
   193   1      9.6952855962044815      10.741743915122587      3.5531632282275698
   194   1      11.318348571176724      11.047670647115119       5.329744799763362
   195   1      9.9968010332299393      8.8782407557033114      5.3297447997483092
   196   1      10.906453294251763      13.038719209661307      3.5531632283027421
   197   1      9.3929829396232432      12.733471907034248      5.3297447996452965
   198   1      9.0860370301466826       5.027784954429996      3.5531632281534646
   199   1      6.9247097929423456      6.3581483586380463      3.5531632281726053
   200   1      8.6386764211154166      6.7019858796505698      5.3297447997319463
   201   1       8.280398257028132       8.561465484529128      3.5531632281845851
   202   1      6.2060954037964402      10.082481311042217       3.553163228254816
   203   1      7.9805088746691544       10.46379246051921      5.3297447997363481
   204   1      6.5778481438943457       8.227718726068554      5.3297447997423202
   205   1      7.7244971799713165        12.2393394495676      3.5531632283564867
   206   1      5.4628775842567672      13.456371879014942      3.5531632292770352
   207   1      7.2668967288265618      13.824658713357335      5.3297447996146454
   208   1      5.7782164436994927      11.813833984941466      5.3297447994654101
   209   1      3.4554975074235794      5.6915606727064816      3.5531632281636205
   210   1      5.1926064108175813      6.0613666275398037      5.3297447997314169
   211   1      4.8506640223128983      7.8429597395478536      3.5531632281768251
   212   1      2.6877023789574177      9.2290927998324914      3.5531632281766581
   213   1      4.4353735559218395      9.6405942457478435      5.3297447997557343
   214   1      3.0900852731132908      7.4521948130978375      5.3297447997452707
   215   1      3.9610004155196985      11.416504451979154      3.5531632282598045
   216   1      1.8478947173976568      13.038719211172266      3.5531632281698111
   217   1      3.5260878611282043      13.165995508687475      5.3297447996479725
   218   1      2.2597899956421865      11.047670649601477      5.3297447997774023
   219   1      18.144595609254829      5.0277849571094135      3.5531632281507717
   220   1      1.7267363534481994      5.3129412630223838       5.329744799727492
   221   1      1.3330695164794706      7.0868471524692964      3.5531632281611238
   222   1     0.93824245691196106      8.8782407577907971      5.3297447997542244
   223   1     0.63672701972834145      10.741743916709714      3.5531632281800891
   224   1     0.33442436314197038      12.733471907451602      5.3297447998921266
