(written by ASE)

144 atoms
1 atom types

0.0      11.231608918600223  xlo xhi
0.0                      30  ylo yhi
0.0      7.1063262862993364  zlo zhi

Atoms # atomic

     1   1      1.6450902042676689      18.961189417846477      2.2308219407434851
     2   1       1.040659559648218      17.179506667054618     0.45424024439558697
     3   1      2.2555111436096666      20.726790112656118     0.45424019531517423
     4   1        8.30846091226209      16.566159538190909      2.2308224639887682
     5   1      10.628694978198254      17.779399949702604      2.2308220588117624
     6   1      9.5433322286764461      20.141940309761829      2.2308219690972604
     7   1   -0.025065658052061908      19.541273812626248     0.45424015804075679
     8   1      8.9137233666252556      18.387166903491345     0.45424009524520254
     9   1     0.57956826103733072      21.315988853890381      2.2308219318043134
    10   1      10.737831668034801      23.678060355365361      2.2308218973177452
    11   1      1.2030778506674873      23.059118728773019     0.45424020887705702
    12   1      10.143111697724231      21.926834007085592     0.45424018705434588
    13   1      1.7871103029778035      24.801835601570023      2.2308218705033895
    14   1     0.16014845020202814      25.277236047763136     0.45424024528307172
    15   1      5.0128904675716663      17.779399955823543        2.23082202507441
    16   1      6.6564641163483271      17.179506593736967     0.45424003215960751
    17   1      7.2608946978302571      18.961189418326171      2.2308220160708498
    18   1      6.1953727251612394       21.31598886664041      2.2308219350460998
    19   1      7.8713156097746912      20.726790120133622     0.45424017120671811
    20   1       5.590738774657134      19.541273822998964     0.45424015517676614
    21   1      8.4820697096508457      22.496809844545702      2.2308219203399826
    22   1      7.4029148035417878      24.801835609065066      2.2308218713608921
    23   1      9.0606154099745897      24.285773695475857     0.45424023632319016
    24   1      6.8188823352075394      23.059118676361937     0.45424020647680391
    25   1      2.6926565156332831       16.56615957028346      2.2308217713688991
    26   1      3.2979189463380618      18.387166877758421     0.45424021725501262
    27   1      3.9275277842024541      20.141940301638375      2.2308219378244201
    28   1      2.8662652796108872      22.496809850345535      2.2308219112569043
    29   1      4.5273072368851262      21.926834019204286     0.45424019645338404
    30   1      5.1220271639143542      23.678060321776204      2.2308218940508988
    31   1      5.7759528888513412      25.277236103818407     0.45424024595573814
    32   1       3.444810960332092      24.285773682081317     0.45424023879301506
    33   1       10.03535436507163       13.82407980771533     0.45424018964327273
    34   1      10.628701824618155      12.220602057594837      2.2308219239264724
    35   1       10.03534747015587      16.175922722827082     0.45424008980518404
    36   1      9.0606274279225296      5.7142281255553486     0.45424031270096143
    37   1      10.737843463222374      6.3219414871583037      2.2308218941302909
    38   1      10.143122686418025       8.073167857918099     0.45424030570718038
    39   1      7.8713258531166987      9.2732121153170457     0.45424029739594252
    40   1      9.5433418151595539      9.8580616823467153      2.2308219059432806
    41   1      8.4820811399725731      7.5031920781196835      2.2308218968943714
    42   1      8.9137314711532181      11.612835699786137     0.45424022870667008
    43   1      6.6564705321781599      12.820494360515129     0.45424015443063626
    44   1      8.3084677580359827      13.433845332808666      2.2308223622563501
    45   1      7.2609034958648628      11.038813344915633      2.2308219319214944
    46   1      7.7400235331187348      15.000001781600924     0.45423961594271495
    47   1      5.9692685592900707      15.000001083440969      2.2308220435932875
    48   1      5.7759652221436193       4.722765714544475     0.45424031500631695
    49   1      7.4029269594367424      5.1981662624676748      2.2308218914405975
    50   1      6.8188939822282304      6.9408832933153741     0.45424031023945372
    51   1      4.5273182704599053       8.073167877756136      0.4542403151038823
    52   1      6.1953833927119888        8.68401318299731      2.2308218925026488
    53   1      5.1220390600784844      6.3219414680627048      2.2308218908530235
    54   1      5.5907479433963641      10.458727988816561     0.45424030420445338
    55   1      3.2979270451837741      11.612835698355056     0.45424035072038527
    56   1      5.0128973565011865      12.220602043827702       2.230821890174989
    57   1      3.9275373967323555      9.8580616933690042      2.2308218746590307
    58   1      4.4195498778733757        13.8240798163781     0.45424034166935023
    59   1      2.1242190985648333      15.000001624667961     0.45424051283730782
    60   1      4.4195429705558205      16.175922728552194     0.45424024182149181
    61   1       2.692663282705706      13.433845380489803       2.230821669632598
    62   1      3.4448229499710292      5.7142281152332037     0.45424031516822039
    63   1      1.2030895745524037      6.9408833425350913     0.45424031263971598
    64   1      2.8662766235827628      7.5031920685050046      2.2308218878053596
    65   1      1.7871225426145931      5.1981662652661393       2.230821890583925
    66   1      2.2555213486105643      9.2732120922948216     0.45424032150339155
    67   1   -0.025056480160255388      10.458727989850805     0.45424030706257368
    68   1      1.6450990025733507      11.038813326310995      2.2308218565921796
    69   1     0.57957897937704628      8.6840131837782142      2.2308218892672698
    70   1      1.0406660683052635      12.820494407446038     0.45424036665901296
    71   1     0.35346408588781908         15.000001071604      2.2308218437021772
    72   1      0.1601607355588415      4.7227656633473467     0.45424031433176337
    73   1      1.6450902042675413      18.961189417846551      5.7839850838931488
    74   1      1.0406595596482129      17.179506667054621      4.0074033875456925
    75   1      2.2555111436096529       20.72679011265614      4.0074033384648615
    76   1       8.308460912261646      16.566159538191226      5.7839856071384315
    77   1      10.628694978197924      17.779399949702906      5.7839852019614346
    78   1      9.5433322286764213      20.141940309761829      5.7839851122469303
    79   1   -0.025065658052062637      19.541273812626248      4.0074033011903287
    80   1      8.9137233666252538      18.387166903491366      4.0074032383946063
    81   1     0.57956826103729542      21.315988853890424      5.7839850749539954
    82   1      10.737831668034323      23.678060355365862      5.7839850404674831
    83   1      1.2030778506674531      23.059118728773011      4.0074033520269934
    84   1       10.14311169772426      21.926834007085567      4.0074033302041459
    85   1      1.7871103029771622      24.801835601570222      5.7839850136531297
    86   1     0.16014845020210042      25.277236047763139      4.0074033884319498
    87   1      5.0128904675720198      17.779399955823248       5.783985168224083
    88   1       6.656464116348336      17.179506593736971      4.0074031753087969
    89   1      7.2608946978303832      18.961189418326104      5.7839851592205287
    90   1      6.1953727251612776      21.315988866640375      5.7839850781957756
    91   1      7.8713156097746886      20.726790120133611      4.0074033143563668
    92   1      5.5907387746571402      19.541273822998956      4.0074032983265155
    93   1      8.4820697096507267      22.496809844545762      5.7839850634896459
    94   1      7.4029148035424157      24.801835609064881      5.7839850145103595
    95   1       9.060615409974746      24.285773695475793      4.0074033794721613
    96   1      6.8188823352075181      23.059118676361958      4.0074033496262018
    97   1      2.6926565156336921       16.56615957028319       5.783984914518574
    98   1      3.2979189463380667      18.387166877758418      4.0074033604049495
    99   1      3.9275277842024878      20.141940301638375      5.7839850809740794
   100   1      2.8662652796110035      22.496809850345468      5.7839850544065659
   101   1      4.5273072368851341      21.926834019204282      4.0074033396029414
   102   1      5.1220271639148329      23.678060321775742      5.7839850372005683
   103   1      5.7759528888511404      25.277236103818435      4.0074033891061607
   104   1      3.4448109603320214      24.285773682081302      4.0074033819433872
   105   1      10.035354365071644      13.824079807715338      4.0074033327930803
   106   1      10.628701824617998      12.220602057594702       5.783985067076137
   107   1      10.035347470155866      16.175922722827092      4.0074032329552773
   108   1      9.0606274279214993      5.7142281255550804      4.0074034558523834
   109   1      10.737843463223573      6.3219414871595383       5.783985037279737
   110   1      10.143122686417929       8.073167857917964       4.007403448856512
   111   1      7.8713258531166295      9.2732121153170191      4.0074034405456835
   112   1      9.5433418151596801      9.8580616823467206      5.7839850490928821
   113   1      8.4820811399729017      7.5031920781198309      5.7839850400440804
   114   1       8.913731471153211      11.612835699786146      4.0074033718561974
   115   1       6.656470532178151      12.820494360515125      4.0074032975800966
   116   1      8.3084677580357926       13.43384533280849      5.7839855054060223
   117   1      7.2609034958649721      11.038813344915647      5.7839850750711603
   118   1       7.740023533118741      15.000001781600936      4.0074027590925629
   119   1      5.9692685592899171      15.000001083440999      5.7839851867429495
   120   1      5.7759652221448503      4.7227657145446438      4.0074034581540374
   121   1       7.402926959435149      5.1981662624671845      5.7839850345913923
   122   1      6.8188939822281593      6.9408832933154336      4.0074034533898022
   123   1      4.5273182704600208      8.0731678777562745      4.0074034582538793
   124   1      6.1953833927119346      8.6840131829971696      5.7839850356524343
   125   1      5.1220390600772729      6.3219414680614738      5.7839850340029342
   126   1      5.5907479433963569      10.458727988816564      4.0074034473542621
   127   1      3.2979270451837772      11.612835698355047      4.0074034938702026
   128   1      5.0128973565013606      12.220602043827855      5.7839850333246519
   129   1      3.9275373967322351      9.8580616933690148      5.7839850178087513
   130   1      4.4195498778733677      13.824079816378097      4.0074034848188678
   131   1      2.1242190985648315      15.000001624667958      4.0074036559868196
   132   1      4.4195429705558276      16.175922728552209      4.0074033849707842
   133   1      2.6926632827058907      13.433845380489966      5.7839848127822684
   134   1      3.4448229499720813      5.7142281152334977      4.0074034583161104
   135   1      1.2030895745524564      6.9408833425350274      4.0074034557887162
   136   1      2.8662766235824479      7.5031920685048661      5.7839850309549767
   137   1      1.7871225426162112      5.1981662652666474       5.783985033732427
   138   1      2.2555213486106225      9.2732120922948305      4.0074034646529881
   139   1   -0.025056480160235425      10.458727989850811      4.0074034502120979
   140   1      1.6450990025732342      11.038813326310978      5.7839849997418611
   141   1     0.57957897937709546      8.6840131837783563      5.7839850324168403
   142   1      1.0406660683052769       12.82049440744604      4.0074035098088778
   143   1     0.35346408588797457      15.000001071603966      5.7839849868518423
   144   1     0.16016073555756691      4.7227656633471735      4.0074034574834174
