(written by ASE)

240 atoms
1 atom types

0.0      19.130872742495107  xlo xhi
0.0                      30  ylo yhi
0.0      7.1063262862993364  zlo zhi

Atoms # atomic

     1   1      6.0781821018118487      17.225662789481373      1.3324361817182866
     2   1      5.1651921962598424      14.999999999995545      3.1090177532815861
     3   1       6.872328227824644      18.746659935325006      3.1090177532809613
     4   1      1.6231048759271329      15.000000000000341      1.3324361816862216
     5   1      3.8981525557872643      16.187701772461882      1.3324361816768973
     6   1      2.8082208241440245      18.424845780315987      1.3324361816937598
     7   1      4.4516089807842834      17.829406119264608      3.1090177532824668
     8   1      2.2241556581936317      16.537314018461753      3.1090177532821048
     9   1      5.1453010045430014      19.530328883067192       1.332436181724896
    10   1      4.2567866670483978      21.920797340774339      1.3324361817362711
    11   1      5.9188135690805366      21.132288402239535      3.1090177532745464
    12   1      3.5026461277515493      20.200795553949472      3.1090177532886578
    13   1      6.6817089545231587      22.733709816784796      1.3324361817132859
    14   1      5.8202535667747934        25.0326360619631      1.3324361816989556
    15   1      4.9930780400816523      23.550336679234604       3.109017753302207
    16   1      17.331743193071503      16.288057370680388      1.3324361817090049
    17   1      18.953650683635171       15.00000000000041      3.1090177532819796
    18   1      16.351164167215295      14.999999999999691      3.1090177532798413
    19   1     0.55564409634814305      17.168787521727786      1.3324361817347166
    20   1      18.814248175374136      19.607457495277654      1.3324361817164372
    21   1      1.2451981149913351       18.97783093915065      3.1090177532824765
    22   1      18.083854975040254      17.820109999833043      3.1090177532822807
    23   1      1.9172477372078889       20.82805613822287       1.332436181670015
    24   1      1.0056163543236807      23.252878840923334      1.3324361816108186
    25   1      2.6210239592397344      22.590423473003469      3.1090177533265129
    26   1     0.35534393521655977      21.428856750958321      3.1090177532772514
    27   1      3.3595908052799301      24.322196723722367      1.3324361816809227
    28   1      1.7074543656401577      24.852620912870133      3.1090177532838847
    29   1      14.730628567544521      14.999999999996934      1.3324361817075963
    30   1       14.01704535204396      17.829406119269184      1.3324361817068777
    31   1      15.643618473056566      17.225662789478402      3.1090177532790082
    32   1      13.463588927032307      16.187701772462244       3.109017753281679
    33   1       16.43776459907037      18.746659935323994      1.3324361817061943
    34   1       15.48424994032108      21.132288402242605      1.3324361817072892
    35   1       17.17544201449115      20.324117333636604      3.1090177532802734
    36   1      14.710737375797683      19.530328883065717      3.1090177532718934
    37   1      17.892751631831946      22.038175479232681      1.3324361817276531
    38   1      16.956063707099034      24.416585952465187      1.3324361818892638
    39   1      18.533528149284937      23.841143889534894      3.1090177532101206
    40   1      16.247145325762784      22.733709816790913      3.1090177532765395
    41   1      9.3882143123822583                      15      1.3324361817062573
    42   1      11.188541247173172      14.999999999999831       3.109017753284065
    43   1      11.789592029406293      16.537314018492417      1.3324361817065746
    44   1      10.810634486224606      18.977830939162573      1.3324361817072474
    45   1      12.373657195391255      18.424845780318321       3.109017753285062
    46   1      10.121080467596896      17.168787521728547      3.1090177532832057
    47   1      13.068082499009757      20.200795553943305      1.3324361817129993
    48   1      12.186460330518985      22.590423472996662      1.3324361816954902
    49   1      13.822223038316793      21.920797340778542      3.1090177532615995
    50   1      11.482684108442688      20.828056138235358      3.1090177533040819
    51   1      14.558514411330226      23.550336679252172      1.3324361816706265
    52   1       15.38568993791977      25.032636061976266      3.1090177533458787
    53   1      12.925027176499841      24.322196723720008       3.109017753311488
    54   1       6.785727795968544      15.000000000004633      1.3324361817264199
    55   1      7.7663068218280982      16.288057370683962      3.1090177532843497
    56   1      8.5184186038075111      17.820109999820943      1.3324361817042945
    57   1      7.6100056432519185      20.324117333628674      1.3324361817053954
    58   1      9.2488118041255518      19.607457495276584       3.109017753282985
    59   1      9.9207803064506486      21.428856750978994       1.332436181703454
    60   1       8.968091777956829      23.841143889593777      1.3324361817132222
    61   1      10.571052725516102      23.252878840966233      3.1090177533295704
    62   1      8.3273152605922665       22.03817547922641      3.1090177532670151
    63   1      11.272890736883873      24.852620912870151      1.3324361816646948
    64   1      7.3906273359096497      24.416585952438087      3.1090177531898546
    65   1      18.083854975033439      12.179890000164557       3.109017753283005
    66   1      18.814248175370025      10.392542504725444      1.3324361817115857
    67   1      17.331743193069364      13.711942629317567      1.3324361817082493
    68   1      18.533528149262231      6.1588561104491077      3.1090177533905674
    69   1      16.247145325766208      7.2662901832115647      3.1090177532845176
    70   1      17.892751631839758      7.9618245207815752      1.3324361817242822
    71   1       16.95606370726583      5.5834140476032372      1.3324361818645307
    72   1      17.175442014493481      9.6758826663652275      3.1090177532848133
    73   1      14.710737375797986      10.469671116934624      3.1090177532857544
    74   1      16.437764599067851      11.253340064677174      1.3324361817045836
    75   1      15.484249940324876      8.8677115977697092      1.3324361817078907
    76   1      15.643618473054774      12.774337210520994       3.109017753286123
    77   1      13.463588927031902      13.812298227538337      3.1090177532900225
    78   1      14.017045352053364      12.170593880735506      1.3324361817060393
    79   1      15.385689937947298      4.9673639380282157      3.1090177531874108
    80   1       12.92502717650523      5.6778032762789801      3.1090177532558281
    81   1        14.5585144113679      6.4496633208219798      1.3324361816754513
    82   1      13.822223038314982      8.0792026592239274      3.1090177532911101
    83   1      11.482684108443165      9.1719438617662874      3.1090177532751797
    84   1      13.068082499036262      9.7992044460616636      1.3324361817119479
    85   1      12.186460330547572      7.4095765270140435      1.3324361816940489
    86   1      12.373657195392315      11.575154219682219      3.1090177532761669
    87   1      10.121080467596268      12.831212478271251      3.1090177532729646
    88   1      11.789592029416358       13.46268598151209      1.3324361817065504
    89   1      10.810634486219943      11.022169060828364      1.3324361817080455
    90   1      11.272890736839878      5.1473790871206599      1.3324361816716932
    91   1      10.571052725519618      6.7471211590377909      3.1090177532818055
    92   1      8.3273152605907299      7.9618245207724145      3.1090177532908116
    93   1      9.9207803064197169      8.5711432489927315      1.3324361817041821
    94   1      8.9680917778668547      6.1588561103488386      1.3324361817177839
    95   1      9.2488118041242853      10.392542504723133      3.1090177532849226
    96   1      6.8723282278229787      11.253340064676271      3.1090177532837511
    97   1      8.5184186038027931      12.179890000171712      1.3324361817039276
    98   1      7.6100056432511032      9.6758826663685422       1.332436181706262
    99   1      7.7663068218264888      13.711942629313604      3.1090177532798169
   100   1      6.0781821018134679      12.774337210524026      1.3324361817118477
   101   1      7.3906273359052657       5.583414047559458      3.1090177532860936
   102   1      4.9930780400832973      6.4496633207649241      3.1090177532781742
   103   1      6.6817089545492152      7.2662901832268245      1.3324361817124732
   104   1      5.8202535668759641      4.9673639380589591      1.3324361816951638
   105   1      5.9188135690792665      8.8677115977595413      3.1090177532913761
   106   1      3.5026461277555008      9.7992044460531087      3.1090177532655598
   107   1      5.1453010045625183      10.469671116942278      1.3324361817237884
   108   1      4.2567866670999654      8.0792026592516564      1.3324361817331869
   109   1      4.4516089807906418      12.170593880741006      3.1090177532807908
   110   1      2.2241556582058069      13.462685981545123       3.109017753281845
   111   1      3.8981525557858241      13.812298227537108      1.3324361816654062
   112   1       2.808220824142583      11.575154219679488      1.3324361817016317
   113   1      1.7074543656364944      5.1473790871290799      3.1090177533129291
   114   1      3.3595908052740873      5.6778032762647808      1.3324361816831558
   115   1      2.6210239592474922       7.409576526998424      3.1090177532211136
   116   1     0.35534393521042212      8.5711432490350852      3.1090177532933461
   117   1       1.917247737177368      9.1719438617562972      1.3324361816760202
   118   1      1.0056163541703929      6.7471211589785645      1.3324361816239174
   119   1      1.2451981149840041      11.022169060845583      3.1090177532813441
   120   1     0.55564409634781065      12.831212478272938       1.332436181745529
   121   1      6.0781821018148898      17.225662789475617      4.8855993248456304
   122   1      5.1651921963429919      15.000000000004119      6.6621808964319937
   123   1      6.8723282278167908      18.746659935323407      6.6621808964326243
   124   1      1.6231048759276552      14.999999999999602      4.8855993248776919
   125   1      3.8981525557871324      16.187701772462564      4.8855993248870169
   126   1      2.8082208241437501      18.424845780318858      4.8855993248701592
   127   1      4.4516089808177535      17.829406119270718       6.662180896431118
   128   1      2.2241556581249609      16.537314018525958      6.6621808964314795
   129   1       5.145301004557588      19.530328883057788      4.8855993248390241
   130   1      4.2567866670887966      21.920797340740865      4.8855993248276555
   131   1      5.9188135690656321      21.132288402235641       6.662180896439045
   132   1      3.5026461278121355      20.200795553926024      6.6621808964249336
   133   1      6.6817089545576085      22.733709816767703      4.8855993248506415
   134   1      5.8202535669757332      25.032636061927956      4.8855993248649749
   135   1      4.9930780401274202      23.550336679201795      6.6621808964113907
   136   1      17.331743193068977      16.288057370681312      4.8855993248549092
   137   1      18.953650683623124      14.999999999999726      6.6621808964316038
   138   1      16.351164167215774      15.000000000001169      6.6621808964337426
   139   1     0.55564409634823719      17.168787521726852      4.8855993248291991
   140   1      18.814248175370395       19.60745749527511      4.8855993248474823
   141   1      1.2451981149612041      18.977830939185768      6.6621808964311109
   142   1      18.083854975070178      17.820109999813781      6.6621808964313036
   143   1      1.9172477371867678      20.828056138234313      4.8855993248939091
   144   1      1.0056163542010474      23.252878840994661      4.8855993249531098
   145   1       2.621023959363237      22.590423472971395      6.6621808963870821
   146   1     0.35534393514554802      21.428856751046823      6.6621808964363387
   147   1      3.3595908052982546      24.322196723738085      4.8855993248830094
   148   1      1.7074543655810115      24.852620912879726      6.6621808964297111
   149   1      14.730628567553422      15.000000000003441      4.8855993248563214
   150   1      14.017045352052696      17.829406119266821      4.8855993248570382
   151   1      15.643618473064663      17.225662789480076      6.6621808964345757
   152   1      13.463588927036879      16.187701772462756      6.6621808964319094
   153   1      16.437764599065613       18.74665993532507      4.8855993248577256
   154   1      15.484249940319685      21.132288402233328      4.8855993248566323
   155   1      17.175442014505403      20.324117333622553      6.6621808964333171
   156   1      14.710737375797489      19.530328883059887      6.6621808964416935
   157   1      17.892751631832979      22.038175479222083      4.8855993248362699
   158   1      16.956063707234243      24.416585952411893      4.8855993246746614
   159   1      18.533528148954939      23.841143889766411      6.6621808965034734
   160   1      16.247145325812596      22.733709816762282      6.6621808964370537
   161   1      9.3882143123809279      14.999999999999551      4.8855993248576599
   162   1      11.188541247176708      14.999999999999757      6.6621808964295184
   163   1      11.789592029407238      16.537314018495099      4.8855993248573428
   164   1      10.810634486222993      18.977830939173749      4.8855993248566723
   165   1      12.373657195391219         18.424845780317      6.6621808964285236
   166   1       10.12108046759476      17.168787521725733      6.6621808964303808
   167   1      13.068082499048458       20.20079555393291      4.8855993248509213
   168   1      12.186460330578615      22.590423472978934      4.8855993248684344
   169   1      13.822223038314998      21.920797340737447      6.6621808964519902
   170   1      11.482684108446788      20.828056138222294      6.6621808964095077
   171   1       14.55851441137346      23.550336679184966      4.8855993248932981
   172   1      15.385689938325299      25.032636061915486      6.6621808963677145
   173   1      12.925027176573007      24.322196723741232      6.6621808964021048
   174   1      6.7857277959674196      14.999999999996522      4.8855993248374903
   175   1      7.7663068218172295      16.288057370676686      6.6621808964292306
   176   1      8.5184186038081577      17.820109999825295      4.8855993248596219
   177   1      7.6100056432500258      20.324117333629772      4.8855993248585232
   178   1      9.2488118041241698      19.607457495275767      6.6621808964306002
   179   1      9.9207803064066447      21.428856751026093      4.8855993248604648
   180   1      8.9680917777880076      23.841143889707435      4.8855993248507028
   181   1      10.571052725503481      23.252878840952278      6.6621808963840214
   182   1      8.3273152605779686      22.038175479227863      6.6621808964465741
   183   1      11.272890736832034      24.852620912880447      4.8855993248992293
   184   1      7.3906273359289587      24.416585952438481      6.6621808965237435
   185   1      18.083854975076797      12.179890000189094       6.662180896430578
   186   1      18.814248175374139      10.392542504721861      4.8855993248523282
   187   1      17.331743193071194      13.711942629321143      4.8855993248556659
   188   1      18.533528148976878      6.1588561102494159      6.6621808963230089
   189   1      16.247145325808866      7.2662901832357329      6.6621808964290601
   190   1      17.892751631824769       7.961824520763864       4.885599324839629
   191   1       16.95606370706702      5.5834140475199145      4.8855993246993767
   192   1      17.175442014502927      9.6758826663760029      6.6621808964287696
   193   1      14.710737375797265       10.46967111694053      6.6621808964278291
   194   1      16.437764599068032      11.253340064674411      4.8855993248593315
   195   1      15.484249940315728      8.8677115977549246      4.8855993248560221
   196   1      15.643618473066333       12.77433721052069      6.6621808964274587
   197   1      13.463588927037138      13.812298227537115      6.6621808964235614
   198   1      14.017045352043542      12.170593880729045       4.885599324857874
   199   1      15.385689938297423      4.9673639380805295      6.6621808965261655
   200   1       12.92502717656723       5.677803276260434      6.6621808964577491
   201   1      14.558514411335469      6.4496633207414726      4.8855993248884575
   202   1      13.822223038316601      8.0792026592607176      6.6621808964224689
   203   1      11.482684108445927      9.1719438617763043      6.6621808964384019
   204   1      13.068082499021932       9.799204446062685      4.8855993248519658
   205   1      12.186460330549767      7.4095765270109464      4.8855993248698626
   206   1      12.373657195390019      11.575154219682695      6.6621808964374152
   207   1      10.121080467594696      12.831212478273764      6.6621808964406171
   208   1      11.789592029396813      13.462685981499552      4.8855993248573659
   209   1      10.810634486227141      11.022169060834795      4.8855993248558685
   210   1      11.272890736875587      5.1473790871293232      4.8855993248922154
   211   1      10.571052725499396      6.7471211590439948      6.6621808964317726
   212   1      8.3273152605782563      7.9618245207725353      6.6621808964227718
   213   1      9.9207803064366775      8.5711432490017945       4.885599324859732
   214   1       8.968091777877051      6.1588561103495412      4.8855993248461278
   215   1      9.2488118041244718      10.392542504723732      6.6621808964286595
   216   1      6.8723282278172491      11.253340064674632       6.662180896429831
   217   1      8.5184186038120036      12.179890000181365      4.8855993248599887
   218   1      7.6100056432497034       9.675882666371967      4.8855993248576528
   219   1      7.7663068218189952      13.711942629324053      6.6621808964337665
   220   1        6.07818210181195      12.774337210516151      4.8855993248520662
   221   1       7.390627335932046      5.5834140475631679      6.6621808964274907
   222   1      4.9930780401245025      6.4496633207977618      6.6621808964354061
   223   1      6.6817089545302712      7.2662901832197511      4.8855993248514409
   224   1      5.8202535668731494      4.9673639380490426      4.8855993248687479
   225   1      5.9188135690657155      8.8677115977643144      6.6621808964222033
   226   1      3.5026461278070391      9.7992044460705579      6.6621808964480191
   227   1      5.1453010045371066      10.469671116932231      4.8855993248401219
   228   1       4.256786667036013      8.0792026592321911      4.8855993248307223
   229   1      4.4516089808107111       12.17059388072286      6.6621808964327895
   230   1      2.2241556581121467      13.462685981466738      6.6621808964317344
   231   1      3.8981525557878398      13.812298227537799      4.8855993248985055
   232   1      2.8082208241442581      11.575154219684993      4.8855993248622802
   233   1      1.7074543655835164       5.147379087120183      6.6621808964006561
   234   1      3.3595908053028687      5.6778032762738446      4.8855993248807579
   235   1      2.6210239593542974      7.4095765270258616       6.662180896492468
   236   1     0.35534393515098933      8.5711432489595403      6.6621808964202334
   237   1      1.9172477372163761      9.1719438617858682      4.8855993248878917
   238   1      1.0056163543533037      6.7471211591027345      4.8855993249399967
   239   1      1.2451981149679485      11.022169060817697       6.662180896432238
   240   1     0.55564409634822554      12.831212478272462      4.8855993248183829
