(written by ASE)

288 atoms
1 atom types

0.0      22.754296173786155  xlo xhi
0.0                      30  ylo yhi
0.0      7.1063262862993364  zlo zhi

Atoms # atomic

     1   1      14.108182097603962      20.067329963118748     0.43963642738160863
     2   1      12.916072766910343      18.614574686753198      2.2162180080226417
     3   1      9.1795990837782551      18.959690407673509     0.43963647891713264
     4   1      10.489385236095435      17.832146533938761      2.2162180281661277
     5   1      7.9698185670162403      17.606725640609888      2.2162180638611444
     6   1        11.6191568159339      19.493390901412781     0.43963646035306464
     7   1      11.525855796190429      22.085151325842585     0.43963640884914551
     8   1       12.80389727185622      21.125178659949231      2.2162179829288817
     9   1      10.356623319209268      20.481457254967214      2.2162180043483231
    10   1      14.017524999923539       22.60705478935904     0.43963639376128705
    11   1      13.865716542773132      25.080313990067108     0.43963638094836122
    12   1       12.73257490334572      23.667112710498301      2.2162179601482883
    13   1      4.0764773401631684      18.855666221539064     0.43963644850585631
    14   1      5.4262144427887167      17.587720170201251      2.2162180580539133
    15   1      2.8707386492584877       17.54969694273553      2.2162180674177461
    16   1      6.6304254207284199       18.89477759252134      0.4396364628400089
    17   1      6.5167967138950553      21.503155238269741      0.4396364177779819
    18   1      7.8398472248768289      20.215594098770698      2.2162180155034563
    19   1      5.2923707127630282      20.169974039681428      2.2162180052376197
    20   1      9.0605779705541991      21.583275122814324     0.43963642794679153
    21   1      8.9361886501843859      24.104112842149558     0.43963640249661068
    22   1      10.264298357512377      23.085498381428817      2.2162179755798879
    23   1      7.7248237054271884      22.826821615051532      2.2162179794474492
    24   1      11.375011038149704       24.58572420857006     0.43963638829938279
    25   1      21.866533318926137      17.832146532094047     0.43963645336871965
    26   1      1.5389246872908331      18.614574671794156     0.43963643492112658
    27   1      1.4267491811986046      21.125178659617958     0.43963641141705223
    28   1      2.7310340135283058      20.067329957640585      2.2162179994660933
    29   1     0.24200872075678365      19.493390900371654       2.216218033506292
    30   1      3.9570144011451034      21.419786243712338     0.43963640809599658
    31   1      3.8546107335131556      23.976215226785275     0.43963638558531848
    32   1      5.1865925598045477      22.744293951550713      2.2162179700333611
    33   1      2.6403769114496467      22.607054787144165      2.2162179656313459
    34   1      6.3985946232237518       24.10571089914497     0.43963639212461858
    35   1      4.9968876482441846      25.199011441680391      2.2162179551181165
    36   1      16.803362528817189      17.587720171648634       0.439636486130207
    37   1      19.346966654171531       17.60672563799092      0.4396364921048681
    38   1      19.216995310827741      20.215594097966548     0.43963644378473676
    39   1      20.556747174052912      18.959690403470411       2.216218051191583
    40   1      18.007573506720185      18.894777591901398      2.2162180343308386
    41   1      21.733771411188609      20.481457247259513      0.4396364323448621
    42   1      21.641446441675029      23.085498378968847     0.43963640417394889
    43   1       0.148707713835072       22.08515131767858      2.2162179807209035
    44   1       20.43772605544639      21.583275121853436      2.2162179996977613
    45   1      1.3554268183315814      23.667112704743385     0.43963638887029677
    46   1      2.4885684550846991       25.08031398684404      2.2162179528692252
    47   1      22.752159124607534      24.585724205369427       2.216217960184891
    48   1      14.247886739459373      17.549696942507886     0.43963649371501101
    49   1      15.453625429355084      18.855666222751569      2.2162180201786343
    50   1      16.669518800938118      20.169974039682437     0.43963643339166703
    51   1      16.563740646704375      22.744293952322423     0.43963639820344486
    52   1      17.893944802042132      21.503155237695101      2.2162179892133906
    53   1      15.334162487854684      21.419786245817679      2.2162179794338677
    54   1      19.101971793836753      22.826821613655412     0.43963640781087249
    55   1      20.313336738714149      24.104112838434588       2.216217974172797
    56   1       17.77574271075926      24.105710899232516      2.2162179634796155
    57   1      15.231758821631978      23.976215228258255      2.2162179568565383
    58   1      16.374035736551075        25.1990114420135     0.43963638324185406
    59   1      22.147800564916068      14.999999976065128     0.43963654154180803
    60   1      20.702176189856999      16.313738041091298      2.2162180957271231
    61   1      21.733770698676953      9.5185427305599557     0.43963664852532397
    62   1      21.866532941189583      12.167853452841205     0.43963657208150392
    63   1      19.346966293530723      12.393274422652167     0.43963659876843819
    64   1      20.702175995870093      13.686261965553003      2.2162181468785462
    65   1      20.556746630202372      11.040309616594417      2.2162181983459215
    66   1      19.469143760808354      15.000000027440352     0.43963654586781381
    67   1      16.882740097014349      15.000000022456648     0.43963654837225891
    68   1      18.142875932204426       16.29230444563067      2.2162180885750375
    69   1      18.142875749294603      13.707695620893013      2.2162181473828171
    70   1      15.594889977222062      16.279499356464708      2.2162180762346959
    71   1      21.641445469708927       6.914501588568295     0.43963668817033463
    72   1      19.101970847632053      7.1731784426688936     0.43963668472518819
    73   1      20.437725225181229      8.4167249021588262      2.2162182389096143
    74   1      20.313335702358586      5.8958871839558364      2.2162182619570014
    75   1      19.216994621137506      9.7844059599773949     0.43963664751622522
    76   1      16.669518148088276      9.8300260338906114     0.43963666012732183
    77   1      18.007572996593169      11.105222490263964      2.2162182016988945
    78   1      17.893943997180184      8.4968448372844225      2.2162182467292078
    79   1      16.803362190591042      12.412279895952096     0.43963660955391942
    80   1      14.247886416692914      12.450302889597438     0.43963663397824265
    81   1       15.59488981027903      13.720500662828456      2.2162181450295946
    82   1      15.453624958286458      11.144333791839252      2.2162182095736274
    83   1      14.282187145028523      14.999999905646328     0.43963659059967192
    84   1       11.74006282900981      16.853518445992272     0.43963657144476131
    85   1      13.116044233658775      16.195833808543341      2.2162180069925426
    86   1      13.116044035333378       13.80416598116604      2.2162180941611114
    87   1      16.374034682489636      4.8009886182579624     0.43963670908728963
    88   1      17.775741691189381       5.894289165286045      2.2162182721659938
    89   1      16.563739735246703      7.2557061093923281      0.4396366943120939
    90   1      14.017524102367943      7.3929450901445577     0.43963669896920854
    91   1      15.334161729468756      8.5802137631325444      2.2162182555234176
    92   1      15.231757797398208      6.0237847666792295       2.216218278606545
    93   1      14.108181466927995      9.9326699146397335      0.4396366700203686
    94   1      11.619156209522833      10.506608989185166     0.43963665857059248
    95   1      12.916072293618148      11.385425155364388      2.2162181958658596
    96   1      12.803896482534789      8.8748211692926731      2.2162182492130813
    97   1      11.740062602466507      13.146481452282741     0.43963665801997387
    98   1      9.3250279074648805      13.686261969294785     0.43963657496772474
    99   1      10.770652478573663      14.999999980435987      2.2162181135263244
   100   1      10.489384849590046      12.167853452528544      2.2162181468555735
   101   1      9.3250281067387046      16.313738044924914     0.43963652382642116
   102   1      6.7657278453894598      16.292304446588137     0.43963651704294093
   103   1      8.0919956757609519       15.00000002914342      2.2162181175650368
   104   1      13.865715489271709      4.9196859104579058     0.43963671131071402
   105   1      11.375009957618216      5.4142756817983564     0.43963670409900057
   106   1      12.732573874673157      6.3328871395110262      2.2162182752727779
   107   1      11.525854920263958      7.9148485689727144     0.43963668569092662
   108   1      9.0605771357110427      8.4167249045555614     0.43963666709514515
   109   1      10.356622616361445      9.5185427375213099      2.2162182205257581
   110   1      10.264297380007877      6.9145015909927876      2.2162182595808968
   111   1       9.179598546986977      11.040309621276679     0.43963662603789594
   112   1       6.630424908468493      11.105222491977568     0.43963663014881449
   113   1      7.9698182078135149      12.393274425986437      2.2162181704933053
   114   1      7.8398465326639712      9.7844059628030671      2.2162182191672981
   115   1      6.7657276654975655      13.707695622131604     0.43963657583207855
   116   1       4.217741720455547      13.720500661116168      0.4396365728287141
   117   1      5.5055920123691227      15.000000023385399      2.2162181203222997
   118   1      5.4262141040451892      12.412279894574286      2.2162181814392774
   119   1       4.217741896868251      16.279499354871582     0.43963650404847165
   120   1      1.7388961389294133      16.195833811448814     0.43963642819215654
   121   1      2.9050390603173124       14.99999989425617      2.2162181672154984
   122   1      8.9361876164848422      5.8958871896490379     0.43963669024255858
   123   1      6.3985936038274884      5.8942891667857218     0.43963670069901817
   124   1      7.7248227618097181      7.1731784465711872      2.2162182562830135
   125   1      6.5167959105577342      8.4968448394534111     0.43963667519639699
   126   1      3.9570136413120154      8.5802137603742175     0.43963668410323975
   127   1      5.2923700614111011      9.8300260342675383      2.2162182318920718
   128   1      5.1865916475296912      7.2557061089374431      2.2162182660437049
   129   1      4.0764768731973922      11.144333790441086     0.43963663784877116
   130   1      1.5389241992354441       11.38542514151465     0.43963662273436616
   131   1       2.870738334143121      12.450302889787949      2.2162182076632124
   132   1      2.7310333763141719       9.932669908968025      2.2162182420737855
   133   1      1.7388959596680886      13.804165984571423     0.43963651540334658
   134   1     0.36291475293446229      16.853518435010173      2.2162181506896061
   135   1     0.36291450487008481       13.14648144717213      2.2162182372262205
   136   1      4.9968865954900332      4.8009886182239558      2.2162182808398505
   137   1      3.8546097103252182      6.0237847643981697     0.43963670723477261
   138   1      1.3554257852509524      6.3328871338478905     0.43963670393857152
   139   1      2.6403760164857037      7.3929450869349447      2.2162182708010585
   140   1      2.4885674015689156      4.9196859059369888      2.2162182831240878
   141   1      1.4267483990885506      8.8748211696180928     0.43963667766004216
   142   1     0.24200813068186977      10.506608990669001      2.2162182317642745
   143   1     0.14870682905279239      7.9148485614519695      2.2162182575975926
   144   1      22.752158044800339      5.4142756784219044      2.2162182759156086
   145   1      14.108182097614021      20.067329963109739      3.9927995705298742
   146   1      12.916072766910021      18.614574686752185      5.7693811511429489
   147   1      9.1795990837617953      18.959690407686544      3.9927996220671194
   148   1      10.489385236095142      17.832146533938129      5.7693811712897887
   149   1      7.9698185670154231      17.606725640609078      5.7693812070100279
   150   1       11.61915681590926      19.493390901436001      3.9927996035024527
   151   1      11.525855796173063      22.085151325861602      3.9927995519967978
   152   1      12.803897271854593      21.125178659944741      5.7693811260593586
   153   1      10.356623319208474        20.4814572549658      5.7693811475234238
   154   1      14.017524999922145      22.607054789358074      3.9927995368944722
   155   1      13.865716542772756       25.08031399006736      3.9927995241272001
   156   1      12.732574903356284      23.667112710474075      5.7693811032975857
   157   1      4.0764773401630494       18.85566622153857      3.9927995916509387
   158   1      5.4262144427859491      17.587720170197791      5.7693812012035233
   159   1      2.8707386492608791       17.54969694274881      5.7693812105677083
   160   1      6.6304254207270352       18.89477759252317      3.9927996059917836
   161   1      6.5167967138976017       21.50315523826843      3.9927995609281002
   162   1       7.839847224876956      20.215594098771625      5.7693811586627692
   163   1      5.2923707127611825      20.169974039679307      5.7693811483844062
   164   1      9.0605779705633012      21.583275122798923      3.9927995710951989
   165   1      8.9361886501991954      24.104112842131475      3.9927995456493659
   166   1      10.264298357510819      23.085498381421353      5.7693811187508546
   167   1      7.7248237054262123      22.826821615051053      5.7693811225946092
   168   1       11.37501103815112      24.585724208575435      3.9927995314776763
   169   1      21.866533318925793      17.832146532094729      3.9927995964696041
   170   1      1.5389246872908224      18.614574671793424       3.992799578058793
   171   1      1.4267491811916979      21.125178659617216      3.9927995545640309
   172   1      2.7310340135290017       20.06732995764358      5.7693811426134429
   173   1     0.24200872076977462      19.493390900371661      5.7693811766554477
   174   1      3.9570144011370654      21.419786243716988      3.9927995512446612
   175   1       3.854610733517652      23.976215226777462      3.9927995287346971
   176   1       5.186592559804013      22.744293951549999      5.7693811131829653
   177   1      2.6403769114498798      22.607054787144669      5.7693811087961144
   178   1      6.3985946232284503      24.105710899145357      3.9927995352742442
   179   1      4.9968876482441456      25.199011441679875      5.7693810982621301
   180   1       16.80336252882093      17.587720171651622      3.9927996292804084
   181   1      19.346966654172693       17.60672563799271      3.9927996352504636
   182   1       19.21699531082756      20.215594097965017      3.9927995869497703
   183   1      20.556747174080428      18.959690403444029        5.76938119434333
   184   1       18.00757350672562      18.894777591896911      5.7693811774837904
   185   1      21.733771411185316      20.481457247257833      3.9927995755024805
   186   1      21.641446441679708      23.085498378952572      3.9927995473258462
   187   1     0.14870771383734557      22.085151317677266      5.7693811238804216
   188   1      20.437726055443733      21.583275121856438      5.7693811428517776
   189   1      1.3554268183440108      23.667112704721848      3.9927995320196668
   190   1      2.4885684550847382      25.080313986844086      5.7693810959993233
   191   1      22.752159124607704      24.585724205369058       5.769381103303763
   192   1      14.247886739472369      17.549696942490328      3.9927996368647318
   193   1      15.453625429354592      18.855666222752479      5.7693811633301539
   194   1      16.669518800942004        20.1699740396833      3.9927995765465512
   195   1      16.563740646703657       22.74429395232163      3.9927995413453603
   196   1      17.893944802035321      21.503155237701126      5.7693811323671724
   197   1      15.334162487845754      21.419786245823349       5.769381122583173
   198   1      19.101971793835709      22.826821613645258      3.9927995509586864
   199   1      20.313336738713033      24.104112838436809      5.7693811173047491
   200   1      17.775742710761222      24.105710899230186      5.7693811066240031
   201   1      15.231758821638346      23.976215228244975      5.7693811000058304
   202   1      16.374035736549168      25.199011442015429      3.9927995263995575
   203   1      22.147800564916118      14.999999976065078      3.9927996847247527
   204   1      20.702176189852111       16.31373804109646      5.7693812388760684
   205   1      21.733770698679681      9.5185427305583321      3.9927997916707092
   206   1      21.866532941190201      12.167853452840589      3.9927997151910768
   207   1      19.346966293531754      12.393274422651107      3.9927997419142702
   208   1      20.702175995865947      13.686261965548027      5.7693812900273391
   209   1      20.556746630223497      11.040309616615875       5.769381341495488
   210   1      19.469143760807022      15.000000027440535      3.9927996890181765
   211   1      16.882740097007023      15.000000022457252      3.9927996915220518
   212   1      18.142875932204195      16.292304445630748      5.7693812317224902
   213   1      18.142875749294475      13.707695620892556      5.7693812905302533
   214   1      15.594889977221728      16.279499356464829      5.7693812193842851
   215   1      21.641445469705943      6.9145015885532537       3.992799831317968
   216   1      19.101970847632945      7.1731784426616159      3.9927998278756229
   217   1      20.437725225184657      8.4167249021626365      5.7693813820554034
   218   1      20.313335702360252      5.8958871839581954      5.7693814051207326
   219   1      19.216994621137726      9.7844059599774411      3.9927997906767332
   220   1      16.669518148088805      9.8300260338907179      3.9927998032802612
   221   1      18.007572996597549      11.105222490267174      5.7693813448495455
   222   1      17.893943997177352      8.4968448372808218      5.7693813898765836
   223   1      16.803362190593226       12.41227989595127      3.9927997527039358
   224   1      14.247886416699101      12.450302889611571      3.9927997771279071
   225   1      15.594889810278826      13.720500662828593      5.7693812881792468
   226   1      15.453624958286417      11.144333791839118      5.7693813527218838
   227   1      14.282187145004725      14.999999905642678      3.9927997337492513
   228   1      11.740062829026339      16.853518445962823      3.9927997145942684
   229   1      13.116044233658521      16.195833808542922      5.7693811501636745
   230   1      13.116044035333276      13.804165981166019      5.7693812373418201
   231   1      16.374034682491956      4.8009886182588044       3.992799852240029
   232   1      17.775741691190273      5.8942891652860272      5.7693814153197422
   233   1      16.563739735247538      7.2557061093913795      3.9927998374584983
   234   1      14.017524102367927       7.392945090145238      3.9927998421118693
   235   1      15.334161729464771      8.5802137631300255      5.7693813986720643
   236   1       15.23175779740108      6.0237847666848561      5.7693814217557504
   237   1      14.108181466929056      9.9326699146435722      3.9927998131693161
   238   1      11.619156209502808       10.50660898917315      3.9927998017200479
   239   1      12.916072293617976      11.385425155364755       5.769381338994398
   240   1      12.803896482534405      8.8748211692947443      5.7693813923573805
   241   1       11.74006260249014      13.146481452325862      3.9927998011695003
   242   1      9.3250279074687956      13.686261969298009      3.9927997181167711
   243   1      10.770652478573563      14.999999980435907      5.7693812566961613
   244   1      10.489384849589825      12.167853452529105      5.7693812899682717
   245   1      9.3250281067420318      16.313738044922196      3.9927996669757135
   246   1       6.765727845390173      16.292304446588478      3.9927996601911864
   247   1      8.0919956757616074      15.000000029143221      5.7693812607145576
   248   1       13.86571548927254      4.9196859104579724      3.9927998544731373
   249   1      11.375009957618369      5.4142756817963633       3.992799847260518
   250   1      12.732573874677517      6.3328871395213353       5.769381418421764
   251   1      11.525854920259587       7.914848568966705       3.992799828840274
   252   1      9.0605771357191589      8.4167249045647274       3.992799810244533
   253   1      10.356622616361401      9.5185427375218286      5.7693813636934594
   254   1      10.264297380006775      6.9145015909951892      5.7693814027367578
   255   1      9.1795985469645096      11.040309621256556      3.9927997691882235
   256   1      6.6304249084638425      11.105222491973384      3.9927997733004581
   257   1      7.9698182078125424      12.393274425987711      5.7693813136402028
   258   1      7.8398465326641702      9.7844059628023228      5.7693813623302761
   259   1      6.7657276654978658      13.707695622131363      3.9927997189790907
   260   1      4.2177417204554954      13.720500661116104      3.9927997159676583
   261   1      5.5055920123743345      15.000000023384191      5.7693812634715318
   262   1      5.4262141040431935      12.412279894578379      5.7693813245888901
   263   1      4.2177418968683593      16.279499354871618      3.9927996471912088
   264   1      1.7388961389297439      16.195833811448367      3.9927995713838356
   265   1       2.905039060354798      14.999999894255039      5.7693813103652261
   266   1      8.9361876164889331      5.8958871896555287      3.9927998333921955
   267   1       6.398593603825991      5.8942891667829604       3.992799843848243
   268   1      7.7248227618094534       7.173178446570267      5.7693813994291538
   269   1      6.5167959105655457      8.4968448394591807        3.99279981834722
   270   1      3.9570136413229982       8.580213760381648      3.9927998272521026
   271   1      5.2923700614093008      9.8300260342702437      5.7693813750472724
   272   1      5.1865916475293972      7.2557061089380621      5.7693814091855851
   273   1      4.0764768731967651      11.144333790441106      3.9927997809930824
   274   1      1.5389241992356093      11.385425141513686      3.9927997658849925
   275   1      2.8707383341523558      12.450302889780765      5.7693813508129983
   276   1      2.7310333763162817      9.9326699089668722      5.7693813852251195
   277   1      1.7388959596681843       13.80416598457087      3.9927996585888885
   278   1     0.36291475290453207      16.853518435071788      5.7693812938387756
   279   1     0.36291450484614723      13.146481447117957      5.7693813803759797
   280   1      4.9968865954902499      4.8009886182245429      5.7693814239958492
   281   1      3.8546097103185559      6.0237847643861544      3.9927998503842312
   282   1      1.3554257852367453      6.3328871338214272       3.992799847088393
   283   1      2.6403760164861265        7.39294508693472      5.7693814139317237
   284   1      2.4885674015690675      4.9196859059369062      5.7693814263008161
   285   1      1.4267483990947494      8.8748211696159061      3.9927998208104523
   286   1     0.24200813068341356      10.506608990658153      5.7693813749142926
   287   1     0.14870682905241711      7.9148485614486042      5.7693814007388742
   288   1      22.752158044800481      5.4142756784206947       5.769381419100327
