(written by ASE)

160 atoms
1 atom types

0.0       12.80744680977112  xlo xhi
0.0                      30  ylo yhi
0.0      7.1063262862993364  zlo zhi

Atoms # atomic

     1   1       12.67889772618611      18.535714065358949      1.3324363812434743
     2   1      11.612348720696156      16.570984486446857      3.1090179604182606
     3   1      7.7241785611726126      17.533222041735005       1.332436384577542
     4   1      9.1520722277180155      16.281122652630927      3.1090179581213748
     5   1      6.6775490626976053      16.179144613329512      3.1090179550965531
     6   1        10.3078614183946      17.709351566588133      1.3324363837163955
     7   1      9.9014751569161596      20.359736359992056      1.3324363805193775
     8   1      11.284486806930662      19.347215302797778      3.1090179535556697
     9   1      8.8179791645234911      18.877400540734502      3.1090179537839342
    10   1      12.344883256383905      21.014043320182108      1.3324363791643028
    11   1      12.009851514775871      23.538481450498228      1.3324363776432431
    12   1      10.941338249848428      21.957099873203806       3.109017950310681
    13   1     0.20910884288981196      24.951766727033078      3.1090179488870455
    14   1      2.7483488161612399      16.281122662807078      1.3324363863929012
    15   1      5.2086253263135811      16.570984501437845      1.3324363876990377
    16   1      4.8807633982992735      19.347215310260246      1.3324363818059226
    17   1      6.2751743284578954      18.535714048180267      3.1090179531066684
    18   1      3.9041380082682937      17.709351580783519      3.1090179555540671
    19   1       7.369597600506796      20.021979992389383      1.3324363803376562
    20   1      7.0195493106800493      22.536038481399579      1.3324363781438011
    21   1      8.4649795802943775      21.474126082882172      3.1090179506876821
    22   1      5.9411598523534384      21.014043315904711      3.1090179507810478
    23   1      9.5236770979256118      22.983509825084255      1.3324363780740331
    24   1      10.584541593179793      24.448883929347065      3.1090179491034156
    25   1      8.0974497610459899        24.0465662102227      3.1090179491599597
    26   1     0.27382567799881624      16.179144621991504      1.3324363821433258
    27   1      1.3204551559922659       17.53322205240714      3.1090179566358667
    28   1      2.4142557579678865      18.877400553255224      1.3324363820754099
    29   1      2.0612561699474363      21.474126097413855       1.332436379091422
    30   1      3.4977517486959022       20.35973636996204      3.1090179521612611
    31   1     0.96587418853353668      20.021980005943568        3.10901795198617
    32   1      4.5376148443009265      21.957099877249053      1.3324363787172468
    33   1      4.1808181884923066      24.448883934561803      1.3324363775164927
    34   1      5.6061281100037759      23.538481444618242      3.1090179492274053
    35   1      3.1199536879854586      22.983509837149317      3.1090179496582619
    36   1      6.6128322517367994      24.951766715702107      1.3324363773041004
    37   1     0.61582590309211682      22.536038493168512       3.109017949729644
    38   1      1.6937263540986025      24.046566224613994       1.332436377574701
    39   1      11.612347848036396      13.429014397342575      3.1090179604287171
    40   1       10.59380337613301      14.999999827777588      1.3324363887723889
    41   1       10.94133796225905      8.0429000176409851      3.1090179710304806
    42   1      12.009851243938218      6.4615186148617232       1.332436400695522
    43   1      11.284486435516634      10.652784475354629      3.1090179674872211
    44   1      8.8179787057526173      11.122599331778485      3.1090179672779761
    45   1      10.307860442846302      12.290648081203013      1.3324363939117154
    46   1      9.9014747817459146      9.6402633795415955      1.3324363974221836
    47   1      9.1520713394954853       13.71887729423735      3.1090179628019761
    48   1      6.6775477682638673      13.820856327553889      3.1090179671158604
    49   1      7.8742275680807534      15.000000000008731       1.332436388289538
    50   1      7.7241776646549312      12.466778271639797      1.3324363926692357
    51   1      10.584541332339066       5.551115984766402      3.1090179724132359
    52   1      8.0974494750298422      5.9534337549327603      3.1090179723504496
    53   1       9.523676765059335      7.0164900080027666      1.3324364002001838
    54   1      8.4649792605392555      8.5258738563145791      3.1090179706143193
    55   1      5.9411595918379607      8.9859568148093825      3.1090179705205485
    56   1      7.3695972589543377      9.9780201699914812      1.3324363976064237
    57   1      7.0195490403928469      7.4639615994444943      1.3324364001133291
    58   1      6.2751738049457924      11.464286276432679      3.1090179681283532
    59   1      3.9041370431530473      12.290648095392228       3.109017965479715
    60   1      5.2086244327855802      13.429014412391618      1.3324363888644768
    61   1      4.8807630343542749      10.652784482890064       1.332436395917471
    62   1      4.1900799712358099      14.999999836160523      3.1090179604494272
    63   1      1.4705041631278375      15.000000020416929       3.109017960408027
    64   1      2.7483479412176237      13.718877304383369      1.3324363911615675
    65   1      6.6128319979721306      5.0482333413735052      1.3324364010876972
    66   1      5.6061278389173372      6.4615186091634786      3.1090179722727478
    67   1      3.1199533652158027      7.0164900200429603      3.1090179717783042
    68   1      4.5376145580104339      8.0429000217744182      1.3324363994511683
    69   1      4.1808179273005432      5.5511159900815006      1.3324364008411362
    70   1      3.4977513801666973      9.6402633895144376      3.1090179689972861
    71   1     0.96587386110881435      9.9780201834462598       3.109017969179571
    72   1       2.414255302478141       11.12259934426103      1.3324363957029906
    73   1      2.0612558610751197      8.5258738707209272      1.3324363990381194
    74   1      1.3204542600755629       12.46677828221048      3.1090179642676987
    75   1     0.27382434333539385      13.820856336587868      1.3324363953892786
    76   1      12.678897216933516      11.464286293348495      1.3324363965559753
    77   1     0.20910859699272202      5.0482333525174159      3.1090179726618965
    78   1      1.6937260721627001      5.9534337691240395      1.3324364007777409
    79   1     0.61582563815171754      7.4639616109844971      3.1090179716931936
    80   1      12.344882997535773      8.9859568189647181      1.3324363989435963
    81   1      12.678897726184104      18.535714065360668      4.8855995243953343
    82   1      11.612348720696152      16.570984486446509      6.6621811035670939
    83   1      7.7241785611695848      17.533222041737034      4.8855995277277202
    84   1       9.152072227717559      16.281122652631087      6.6621811012702281
    85   1      6.6775490626965786       16.17914461332856      6.6621810982463243
    86   1      10.307861418393578      17.709351566588612      4.8855995268666881
    87   1      9.9014751569169945      20.359736359989451      4.8855995236669729
    88   1      11.284486806928763      19.347215302799615      6.6621810967077417
    89   1      8.8179791645227983      18.877400540735824       6.662181096934912
    90   1      12.344883256374143       21.01404332018728      4.8855995223141058
    91   1      12.009851514784003      23.538481450488696      4.8855995207923755
    92   1      10.941338249848101      21.957099873204029      6.6621810934760202
    93   1     0.20910884289443535      24.951766727030655      6.6621810920307256
    94   1      2.7483488161619185       16.28112266280657      4.8855995295421062
    95   1      5.2086253263136628      16.570984501438328      4.8855995308480162
    96   1      4.8807633983044427      19.347215310255972       4.885599524956115
    97   1      6.2751743284583617      18.535714048179535        6.66218109626129
    98   1      3.9041380082687409      17.709351580783199      6.6621810987047363
    99   1      7.3695976005096213      20.021979992388921      4.8855995234850829
   100   1      7.0195493106803246      22.536038481399554      4.8855995212945045
   101   1      8.4649795802956742      21.474126082880783      6.6621810938401325
   102   1      5.9411598523566944      21.014043315902512       6.662181093927189
   103   1      9.5236770979394656      22.983509825062054      4.8855995212234129
   104   1      10.584541593181763      24.448883929346895      6.6621810922341878
   105   1      8.0974497610471019      24.046566210221755      6.6621810922881668
   106   1      0.2738256779999535      16.179144621993139      4.8855995252930802
   107   1       1.320455155993796      17.533222052406188      6.6621810997856432
   108   1      2.4142557579696944       18.87740055325289      4.8855995252251549
   109   1      2.0612561699408709      21.474126097419322      4.8855995222417556
   110   1       3.497751748695948      20.359736369962562      6.6621810953048382
   111   1      0.9658741885335862       20.02198000594338      6.6621810951299292
   112   1      4.5376148442971882      21.957099877251277      4.8855995218715336
   113   1      4.1808181884870192      24.448883934562119       4.885599520664015
   114   1      5.6061281100021816      23.538481444618021      6.6621810923762625
   115   1      3.1199536879806562      22.983509837155001      6.6621810928122391
   116   1      6.6128322517217626       24.95176671571015      4.8855995204565694
   117   1     0.61582590309155305      22.536038493168554      6.6621810928884075
   118   1      1.6937263541001928      24.046566224610523      4.8855995207179239
   119   1      11.612347848036469      13.429014397342291      6.6621811035792176
   120   1      10.593803376133053      14.999999827777382      4.8855995319220362
   121   1      10.941337962259039      8.0429000176410099      6.6621811141713403
   122   1      12.009851243933552      6.4615186148563302      4.8855995438456894
   123   1      11.284486435518764      10.652784475356642      6.6621811106354585
   124   1       8.817978705753319       11.12259933177979       6.662181110426987
   125   1      10.307860442847021      12.290648081203422      4.8855995370607985
   126   1      9.9014747817454154       9.640263379540162      4.8855995405741881
   127   1      9.1520713394959472      13.718877294237515      6.6621811059522082
   128   1      6.6775477682648656      13.820856327552821      6.6621811102653172
   129   1      7.8742275680807543      15.000000000009413      4.8855995314391656
   130   1      7.7241776646571676      12.466778271641164      4.8855995358184323
   131   1      10.584541332337116      5.5511159847662173      6.6621811155736212
   132   1      8.0974494750290624      5.9534337549322389      6.6621811155120696
   133   1      9.5236767650515741      7.0164900079903374      4.8855995433497936
   134   1      8.4649792605376284      8.5258738563129874      6.6621811137624425
   135   1        5.94115959183463      8.9859568148072348      6.6621811136721396
   136   1      7.3695972589528242      9.9780201699912556      4.8855995407583324
   137   1      7.0195490403926888       7.463961599444481      4.8855995432614119
   138   1      6.2751738049452994      11.464286276432002      6.6621811112746112
   139   1      3.9041370431525722      12.290648095391886      6.6621811086288201
   140   1      5.2086244327853928      13.429014412391826      4.8855995320149015
   141   1      4.8807630343509008      10.652784482887139       4.885599539066531
   142   1      4.1900799712358188      14.999999836160736      6.6621811035990612
   143   1      1.4705041631277922      15.000000020416579      6.6621811035576304
   144   1      2.7483479412170602      13.718877304382918      4.8855995343117735
   145   1      6.6128319979804973      5.0482333413779799      4.8855995442355704
   146   1      5.6061278389192681      6.4615186091640657      6.6621811154228583
   147   1       3.119953365220641      7.0164900200491305      6.6621811149256347
   148   1      4.5376145580124607      8.0429000217755959      4.8855995425959895
   149   1      4.1808179273034778      5.5511159900816711      4.8855995439940019
   150   1      3.4977513801667213      9.6402633895150274      6.6621811121509182
   151   1     0.96587386110896267      9.9780201834461284      6.6621811123325827
   152   1      2.4142553024771951      11.122599344259383      4.8855995388525315
   153   1      2.0612558610790406      8.5258738707241637      4.8855995421870428
   154   1      1.3204542600738758      12.466778282209475      6.6621811074169628
   155   1     0.27382434333423772      13.820856336589371      4.8855995385388464
   156   1      12.678897216934665       11.46428629334965      4.8855995397032492
   157   1     0.20910859698794976      5.0482333525148855      6.6621811158148319
   158   1      1.6937260721618523      5.9534337691221824      4.8855995439341005
   159   1      0.6158256381521936      7.4639616109845335      6.6621811148376047
   160   1      12.344882997541291      8.9859568189676775       4.885599542093404
