(written by ASE)

276 atoms
1 atom types

0.0      21.610057195483719  xlo xhi
0.0                      30  ylo yhi
0.0      7.1063262862993364  zlo zhi

Atoms # atomic

     1   1      9.1572818191992891      16.817406471361689      1.7765815687861177
     2   1      9.8727195415226738      20.267931038567998      1.7765815687854714
     3   1      9.4853685735647968      18.527887834235738      3.5531631403617783
     4   1      10.583499995468994      23.863738444871714      1.7765815687713074
     5   1      10.245255675965327      22.054995304710676      3.5531631403625035
     6   1      5.7694634956878117      16.965213089673018      1.7765815687875226
     7   1       7.402278914331144      16.896613222841907      3.5531631403520816
     8   1      7.6995821293215263      18.800318216671307      1.7765815687850597
     9   1      6.3885377143400426      20.937958305458487      1.7765815687856101
    10   1      8.0925818343710638      20.637358321997443      3.5531631403605846
    11   1      6.0768657799324535      19.011245980466583      3.5531631403615265
    12   1      8.4674806066558759        22.4406519178035      1.7765815687883444
    13   1      7.0143036993161729      24.540308727214974      1.7765815688210178
    14   1      8.7992243421533995      24.188636266896758      3.5531631403649699
    15   1      6.7017106448741508      22.776316033255576      3.5531631403602897
    16   1      2.5379866284166601      17.749965088614314      1.7765815687866904
    17   1      4.2349337271585519       17.24788780131933      3.5531631403741826
    18   1      2.0957482645819772      16.178880481408402      3.5531631403630435
    19   1      4.4907733898848052         19.251012334494      1.7765815687876796
    20   1      2.9868084016024632      21.368103457872962       1.776581568783923
    21   1      4.7058631176251007      21.150897432761418      3.5531631403610096
    22   1        2.75171387929782       19.49399881995436        3.55316314035985
    23   1      4.9721550119973799      23.029587976226836      1.7765815687800901
    24   1      3.5449775541292379      25.097946889131659      1.7765815687248692
    25   1      5.2375158309253553      24.844069629855397      3.5531631403559314
    26   1      3.2642291654307067      23.238380533012847      3.5531631403608248
    27   1     0.29004622600748686      16.550630010407914      1.7765815687850335
    28   1      20.290397171306168       18.52788783423237      1.7765815687883051
    29   1     0.55618181736054995      18.170019379689734      3.5531631403629236
    30   1      19.962310416903694      16.817406471377506      3.5531631403618946
    31   1     0.90989358729332626      19.858559384119378      1.7765815687873998
    32   1      21.050284273703621      22.054995304707631      1.7765815687893645
    33   1      1.2229913303135189      21.679801643982049      3.5531631403590014
    34   1      20.677748139263286      20.267931038568928      3.5531631403606831
    35   1      1.5311701899674013      23.528418289810819      1.7765815687891049
    36   1      1.8779784463688127      25.251203900633151      3.5531631403645423
    37   1       21.38852859323039      23.863738444879878      3.5531631403559163
    38   1      18.207307512073385      16.896613222847311      1.7765815687559117
    39   1      16.881894377664601      19.011245980470918      1.7765815687870767
    40   1       18.50461072706598       18.80031821667151      3.5531631403615158
    41   1      16.574492093480671      16.965213089677793      3.5531631403624813
    42   1      18.897610432111993       20.63735832199831      1.7765815687849944
    43   1      17.506739242628189       22.77631603325565      1.7765815687850528
    44   1      19.272509204400052      22.440651917803638      3.5531631403618422
    45   1      17.193566312079351      20.937958305462203      3.5531631403607316
    46   1      19.604252939871458      24.188636266900268      1.7765815687895206
    47   1      17.819332297056309      24.540308727217134      3.5531631403765251
    48   1      12.900776862314848      16.178880481399414      1.7765815687937436
    49   1      15.039962324909609      17.247887801325813      1.7765815688263014
    50   1      13.556742477037083      19.493998819956392      1.7765815687814273
    51   1       15.29580198761983      19.251012334493737      3.5531631403609802
    52   1       13.34301522612005      17.749965088640213      3.5531631403624973
    53   1      15.510891715364744      21.150897432769113      1.7765815687878341
    54   1      14.069257763163947      23.238380533030259      1.7765815687900686
    55   1      15.777183609740508      23.029587976230399      3.5531631403577215
    56   1      13.791836999337834      21.368103457878082      3.5531631403592083
    57   1      16.042544428757918       24.84406962984955      1.7765815687872608
    58   1      14.350006151869303       25.09794688913524      3.5531631403310233
    59   1      11.095074823733666      16.550630010383848      3.5531631403649118
    60   1      11.361210415107999      18.170019379698306      1.7765815687851341
    61   1      11.714922185030115      19.858559384123122      3.5531631403605082
    62   1       12.02801992805229      21.679801643989983      1.7765815687837914
    63   1      12.336198787696434      23.528418289819651      3.5531631403615722
    64   1         12.683007044016      25.251203900639474      1.7765815687802173
    65   1      18.154448808787905      14.999999999999668      3.5531631403624977
    66   1   -0.049280860325287217      14.999999999993303       3.553163140363087
    67   1      10.755747737429944      15.000000000027788      1.7765815687861617
    68   1      19.857592543548822      15.000000000002347      1.7765815687812838
    69   1      5.5506982480168157      14.999999999999886      3.5531631403667991
    70   1        7.34942021103305      14.999999999998744       1.776581568787104
    71   1       9.052563945805316      15.000000000002526      3.5531631403576593
    72   1      3.7134484910414249      15.000000000002041      1.7765815687888575
    73   1      14.518477088782873      15.000000000002492      3.5531631403635133
    74   1      21.388528593225043      6.1362615551306066      3.5531631403689286
    75   1      20.677748139270033      9.7320689614378537      3.5531631403639818
    76   1       21.05028427371187      7.9450046952956237      1.7765815687901205
    77   1      19.962310416935217      13.182593528641286      3.5531631403631621
    78   1       20.29039717131278      11.472112165772216      1.7765815687891156
    79   1      17.819332297060413      5.4596912727888238      3.5531631403554917
    80   1      19.604252939889903      5.8113637331059191      1.7765815687921744
    81   1      19.272509204405058      7.5593480822022672      3.5531631403643145
    82   1      17.193566312086414      9.0620416945459503      3.5531631403653066
    83   1      18.897610432118277      9.3626416780088579      1.7765815687901845
    84   1      17.506739242629415      7.2236839667497925      1.7765815687907236
    85   1      18.504610727067782      11.199681783333963      3.5531631403638078
    86   1      16.574492093448271      13.034786910330068      3.5531631403643886
    87   1      18.207307512072582      13.103386777161619      1.7765815687857685
    88   1       16.88189437767333      10.988754019536149      1.7765815687896791
    89   1       14.35000615188468      4.9020531108723739      3.5531631403827983
    90   1      16.042544428719271      5.1559303701528707      1.7765815687878104
    91   1      15.777183609746135      6.9704120237764586      3.5531631403669586
    92   1      13.791836999348943      8.6318965421292173      3.5531631403656303
    93   1      15.510891715372402      8.8491025672396564      1.7765815687898907
    94   1      14.069257763175644      6.7616194669833467      1.7765815687896125
    95   1      15.295801987628726      10.748987665509716      3.5531631403654877
    96   1      13.343015226149186      12.250034911386988      3.5531631403643162
    97   1      15.039962324901373      12.752112198683843      1.7765815687918507
    98   1      13.556742477046573      10.506001180046763      1.7765815687893551
    99   1      12.900776862330208      13.821119518597317      1.7765815687880815
   100   1      1.2229913303171398       8.320198356017368       3.553163140364644
   101   1     0.55618181736944738      11.829980620306067      3.5531631403642407
   102   1       12.68300704407255      4.7487960993685947      1.7765815687948054
   103   1      12.336198787714657      6.4715817101932682      3.5531631403641866
   104   1      10.245255675968819      7.9450046952961593      3.5531631403632269
   105   1      12.028019928060331       8.320198356020196       1.776581568789704
   106   1      10.583499995486555      6.1362615551285531       1.776581568792142
   107   1      11.714922185040125       10.14144061587985      3.5531631403652799
   108   1       9.485368573569259      11.472112165772872       3.553163140366109
   109   1      11.361210415113998      11.829980620313922      1.7765815687895175
   110   1      9.8727195415273385      9.7320689614365765      1.7765815687897604
   111   1      11.095074823751272      13.449369989597223      3.5531631403641479
   112   1      9.1572818191973155      13.182593528618964      1.7765815687881858
   113   1      8.7992243421415228      5.8113637331045478       3.553163140363762
   114   1      6.7017106448874664      7.2236839667482489      3.5531631403655219
   115   1      8.4674806066626918      7.5593480822012573      1.7765815687904485
   116   1      7.0143036993190249      5.4596912727875617        1.77658156878995
   117   1        8.09258183437551      9.3626416780054083      3.5531631403647794
   118   1      6.0768657799262691      10.988754019533218      3.5531631403649491
   119   1      7.6995821293283724      11.199681783336086       1.776581568789122
   120   1      6.3885377143415205      9.0620416945411577      1.7765815687901947
   121   1      7.4022789143353673        13.1033867771557      3.5531631403433317
   122   1      5.7694634956643807      13.034786910324687      1.7765815687892146
   123   1      5.2375158309932504      5.1559303701519781      3.5531631403658563
   124   1      3.2642291654292173      6.7616194669777272      3.5531631403646244
   125   1       4.972155012002295      6.9704120237735294      1.7765815687906614
   126   1      3.5449775541369886      4.9020531108685264      1.7765815687912367
   127   1      4.7058631176270822      8.8491025672356969      3.5531631403648585
   128   1       2.751713879299484      10.506001180046395      3.5531631403613488
   129   1      4.4907733898857982      10.748987665506563      1.7765815687901367
   130   1      2.9868084016035241      8.6318965421243323      1.7765815687898461
   131   1      4.2349337271671015      12.752112198680701      3.5531631403895831
   132   1      2.0957482645735945      13.821119518608263       3.553163140368012
   133   1      2.5379866284269492      12.250034911391255      1.7765815687901856
   134   1      0.9098935872977163      10.141440615887198      1.7765815687878266
   135   1     0.29004622600737584      13.449369989618013       1.776581568790933
   136   1      1.8779784463100233      4.7487960993645348      3.5531631403661548
   137   1      1.5311701899672696      6.4715817101875759      1.7765815687903597
   138   1      16.355726845755456      15.000000000003828      1.7765815687923396
   139   1      9.1572818191876397      16.817406471360723      5.3297447119376633
   140   1      9.8727195415223505      20.267931038567649      5.3297447119364145
   141   1      9.4853685735675324      18.527887834234132 -2.7884309463735148e-09
   142   1      10.583499995481448      23.863738444878955      5.3297447119491226
   143   1      10.245255675959143      22.054995304710985 -2.7911783217878804e-09
   144   1      5.7694634957170923      16.965213089673075      5.3297447119360424
   145   1      7.4022789143294148      16.896613222842458 -2.7776970360928708e-09
   146   1      7.6995821293221214      18.800318216672061      5.3297447119373071
   147   1       6.388537714340365        20.9379583054581      5.3297447119355343
   148   1      8.0925818343715683      20.637358321995663 -2.7888461141926081e-09
   149   1      6.0768657799287151      19.011245980467756 -2.7888092221917009e-09
   150   1       8.467480606656606      22.440651917804061      5.3297447119323333
   151   1      7.0143036993080541      24.540308727216807      5.3297447118991528
   152   1       8.799224342116041      24.188636266904712 -2.7942947357095725e-09
   153   1      6.7017106448912802      22.776316033253579 -2.7894818601658172e-09
   154   1      2.5379866283994095      17.749965088622648      5.3297447119362742
   155   1      4.2349337271595928      17.247887801319685 -2.7999852347965999e-09
   156   1      2.0957482645851138      16.178880481407393 -2.7887920438467379e-09
   157   1      4.4907733898830182      19.251012334492437      5.3297447119344445
   158   1      2.9868084016010767      21.368103457872333      5.3297447119372086
   159   1      4.7058631176257277      21.150897432765472 -2.7895217186788365e-09
   160   1      2.7517138793016529       19.49399881995506 -2.7870245796461808e-09
   161   1      4.9721550119979563      23.029587976226338      5.3297447119402692
   162   1      3.5449775541368274      25.097946889130423      5.3297447119951231
   163   1      5.2375158310473253      24.844069629843695 -2.7855583293603225e-09
   164   1       3.264229165422178      23.238380533028433  -2.790133852455882e-09
   165   1     0.29004622600375207      16.550630010404657       5.329744711936681
   166   1      20.290397171306427      18.527887834232526      5.3297447119344108
   167   1     0.55618181736945893      18.170019379694292 -2.7881183586141985e-09
   168   1      19.962310416945833      16.817406471382231 -2.7870521841303626e-09
   169   1     0.90989358729237502      19.858559384123016      5.3297447119348664
   170   1      21.050284273706687       22.05499530470664      5.3297447119316201
   171   1      1.2229913303120026      21.679801643983655 -2.7874654473446335e-09
   172   1      20.677748139264281      20.267931038568324 -2.7883909288525577e-09
   173   1      1.5311701899642889      23.528418289809359      5.3297447119312391
   174   1      1.8779784462461264      25.251203900634831  -2.794192442057055e-09
   175   1      21.388528593209767       23.86373844486242 -2.7851585474533291e-09
   176   1      18.207307512074056       16.89661322284741      5.3297447119677521
   177   1      16.881894377663997       19.01124598047036      5.3297447119350663
   178   1      18.504610727064691      18.800318216668209 -2.7886427000502827e-09
   179   1      16.574492093387484      16.965213089679175 -2.7881011942972712e-09
   180   1      18.897610432111826      20.637358321998857      5.3297447119363737
   181   1      17.506739242619734      22.776316033256666       5.329744711935402
   182   1      19.272509204396933      22.440651917801624 -2.7908276394962257e-09
   183   1      17.193566312076818       20.93795830546302 -2.7892107828007751e-09
   184   1      19.604252939886855      24.188636266897291      5.3297447119308137
   185   1      17.819332297055897      24.540308727215411  -2.806022691224803e-09
   186   1      12.900776862310765      16.178880481397822      5.3297447119295844
   187   1      15.039962324908096      17.247887801324481       5.329744711897189
   188   1       13.55674247703695       19.49399881995754       5.329744711940898
   189   1      15.295801987624763      19.251012334498188 -2.7883277549891793e-09
   190   1      13.343015226174979      17.749965088610079 -2.7887474559501694e-09
   191   1      15.510891715363915      21.150897432767611      5.3297447119332615
   192   1      14.069257763167375      23.238380533022664      5.3297447119302737
   193   1      15.777183609735962      23.029587976231028 -2.7870170138236212e-09
   194   1      13.791836999343374      21.368103457879695 -2.7877040893471891e-09
   195   1      16.042544428699649      24.844069629854904      5.3297447119327668
   196   1      14.350006151876094      25.097946889135713 -2.7607029510828476e-09
   197   1      11.095074823747622      16.550630010383898 -2.7890855659705773e-09
   198   1      11.361210415106289      18.170019379700573      5.3297447119379981
   199   1      11.714922185035022       19.85855938411817 -2.7876462802245452e-09
   200   1      12.028019928053636      21.679801643987517      5.3297447119373764
   201   1      12.336198787712851      23.528418289811473 -2.7908950623065715e-09
   202   1      12.683007044075387      25.251203900638984       5.329744711939794
   203   1      18.154448808772681      15.000000000007264 -2.7861916849571572e-09
   204   1   -0.049280860311601137      14.999999999983416 -2.7831189863740753e-09
   205   1      10.755747737417771      15.000000000023997      5.3297447119378782
   206   1      19.857592543547913      15.000000000002776       5.329744711942916
   207   1      5.5506982480148555      14.999999999999718  -2.790822277728727e-09
   208   1      7.3494202110466187      15.000000000001727      5.3297447119383268
   209   1      9.0525639458067939      15.000000000004089 -2.7812143463051388e-09
   210   1      3.7134484910420253      15.000000000002103      5.3297447119366703
   211   1      14.518477088782028      15.000000000002675 -2.7875519391772522e-09
   212   1      21.388528593223757      6.1362615551295914 -2.7878134586841606e-09
   213   1       20.67774813926982      9.7320689614384079 -2.7843048712730648e-09
   214   1      21.050284273709831      7.9450046952949247      5.3297447119400765
   215   1      19.962310416936486      13.182593528641551 -2.7850944348599285e-09
   216   1      20.290397171311888      11.472112165771746       5.329744711938921
   217   1      17.819332297065223       5.459691272789426 -2.7741156231516279e-09
   218   1      19.604252939879647      5.8113637331037928      5.3297447119386971
   219   1      19.272509204405488      7.5593480822020194 -2.7834539386926312e-09
   220   1       17.19356631208716      9.0620416945457922 -2.7849067564456563e-09
   221   1      18.897610432119201      9.3626416780092026      5.3297447119395862
   222   1      17.506739242634403      7.2236839667504382      5.3297447119399948
   223   1      18.504610727067405      11.199681783333956 -2.7845824823428681e-09
   224   1      16.574492093440497      13.034786910330698 -2.7862868839728509e-09
   225   1      18.207307512073786      13.103386777161658      5.3297447119412009
   226   1      16.881894377675064      10.988754019536463      5.3297447119390737
   227   1      14.350006151878366      4.9020531108718437 -2.8012540300972619e-09
   228   1      16.042544428753999      5.1559303701561223      5.3297447119433619
   229   1       15.77718360974724      6.9704120237763352 -2.7857778635118353e-09
   230   1      13.791836999348307      8.6318965421287039 -2.7852446501348549e-09
   231   1       15.51089171537221      8.8491025672388997      5.3297447119401395
   232   1      14.069257763173372      6.7616194669787788      5.3297447119412329
   233   1      15.295801987629321      10.748987665509071 -2.7860693759999057e-09
   234   1      13.343015226153554      12.250034911387958 -2.7859086609666017e-09
   235   1      15.039962324900243      12.752112198684571      5.3297447119354215
   236   1      13.556742477044478      10.506001180046979      5.3297447119393775
   237   1      12.900776862326907      13.821119518597312      5.3297447119394299
   238   1      1.2229913303171378      8.3201983560160819 -2.7842591316777168e-09
   239   1     0.55618181736899519      11.829980620311323 -2.7852815887186773e-09
   240   1      12.683007044037311      4.7487960993685308      5.3297447119363817
   241   1      12.336198787711629      6.4715817101899233 -2.7830112328947787e-09
   242   1      10.245255675968918      7.9450046952958147 -2.7827062524069552e-09
   243   1      12.028019928059926      8.3201983560178387       5.329744711940295
   244   1      10.583499995480151      6.1362615551339861       5.329744711938627
   245   1      11.714922185040292      10.141440615881464 -2.7861534375327468e-09
   246   1      9.4853685735696232      11.472112165772417 -2.7874460277431264e-09
   247   1       11.36121041510822      11.829980620315842      5.3297447119377948
   248   1      9.8727195415280011      9.7320689614325122      5.3297447119394947
   249   1      11.095074823751965      13.449369989594997 -2.7860509892610266e-09
   250   1      9.1572818191697891      13.182593528622606      5.3297447119387851
   251   1      8.7992243421433702      5.8113637331051704 -2.7825865929258684e-09
   252   1      6.7017106448874149      7.2236839667482613 -2.7844566554621233e-09
   253   1      8.4674806066617059      7.5593480822017245      5.3297447119400445
   254   1      7.0143036993202452      5.4596912727881257      5.3297447119410712
   255   1      8.0925818343754887      9.3626416780051933 -2.7846422911192358e-09
   256   1      6.0768657799254866      10.988754019532756 -2.7855379953249932e-09
   257   1      7.6995821293289932      11.199681783333437      5.3297447119395249
   258   1      6.3885377143399706      9.0620416945414313      5.3297447119397958
   259   1      7.4022789143347145      13.103386777155906 -2.7655111966656203e-09
   260   1      5.7694634957253186      13.034786910325471      5.3297447119377983
   261   1      5.2375158309921543      5.1559303701516912 -2.7843560245703753e-09
   262   1      3.2642291654297315      6.7616194669776384 -2.7834313870132824e-09
   263   1      4.9721550120010729      6.9704120237734806      5.3297447119401582
   264   1      3.5449775541372341      4.9020531108681151      5.3297447119399797
   265   1      4.7058631176270556      8.8491025672359438 -2.7844289786721593e-09
   266   1      2.7517138793001146      10.506001180048909 -2.7820901116529961e-09
   267   1      4.4907733898827358      10.748987665510105      5.3297447119386741
   268   1      2.9868084016041188      8.6318965421269773      5.3297447119401573
   269   1      4.2349337271689675      12.752112198679006 -2.8114120413829987e-09
   270   1      2.0957482645788055       13.82111951860548 -2.7895572032393273e-09
   271   1      2.5379866283910149      12.250034911372131      5.3297447119373924
   272   1      0.9098935872945989      10.141440615882003      5.3297447119407275
   273   1      0.2900462259987423      13.449369989620566      5.3297447119330847
   274   1      1.8779784463106823      4.7487960993647107 -2.7846289028436929e-09
   275   1      1.5311701899711914      6.4715817101900726       5.329744711940493
   276   1      16.355726845756912      15.000000000003741      5.3297447119331709
