(written by ASE)

100 atoms
1 atom types

0.0       7.949449743995868  xlo xhi
0.0                      30  ylo yhi
0.0      7.1063262862993364  zlo zhi

Atoms # atomic

     1   1     0.35603545652917107      18.482916539853424      1.7765816136371499
     2   1      7.4403376759553792      16.251321407134231      3.5531631789592231
     3   1      3.4656128040129355      16.251321406986868      1.7765816085977701
     4   1      5.0015204353620648      16.251105196601554      3.5531631759583866
     5   1      6.0411169869155277      17.529833616073937      1.7765816105038015
     6   1      5.2233693816132769      20.038829539128812      1.7765816158883558
     7   1      6.7500040116160003      19.131159948756377      3.5531631849123086
     8   1      4.3307603282058933      18.482916540789052      3.5531631850445846
     9   1      7.6092385466872257      20.885231210152298      1.7765816177232165
    10   1      6.8985788854250272      23.372045162202333      1.7765816204792073
    11   1     0.52621119015578832      22.516568932747202      3.5531631910730197
    12   1      6.0608121509707953      21.695287539438162      3.5531631901883185
    13   1       7.776093626847965       24.87107513707128      3.5531631927495781
    14   1      1.0267955630740639      16.251105198060618      1.7765816061216304
    15   1       2.066392114737146      17.529833616085828      3.5531631814156417
    16   1      2.7752791398077195      19.131159948796945      1.7765816135220094
    17   1      2.0860872789711262      21.695287539427483      1.7765816186181029
    18   1      3.6345136747488671      20.885231209960224      3.5531631892860629
    19   1      1.2486445096318637      20.038829539240467      3.5531631873865934
    20   1      4.5009360621825945      22.516568932720819      1.7765816195479902
    21   1      3.8013687549600648      24.871075137002194      1.7765816211584602
    22   1      5.3579538610575872      24.184763925609172      3.5531631925216929
    23   1      2.9238540135036595      23.372045162133301      3.5531631920349978
    24   1       1.383228989064333       24.18476392564596      1.7765816208603473
    25   1      6.7491362033608668      13.372144447561675  2.7915881293259891e-08
    26   1      6.0408535426070511      14.972543087708605      1.7765816051175416
    27   1      7.0720461695848797      5.1394367589418275  1.3253808866862239e-08
    28   1      5.3624142487508424      8.3042542227953451  1.6036968220491305e-08
    29   1      6.9149915424883446      9.1392728981599163      1.7765815888498271
    30   1       6.198939753285555      6.6399733037588291      1.7765815856615343
    31   1       6.058142296607107      10.813196449765202   2.101907228556491e-08
    32   1      3.6353386672482846      11.617642809641536  2.2579603337798513e-08
    33   1      5.2216222603878242      12.462080707478236      1.7765815968438945
    34   1      4.5049216128834519      9.9723524464452797      1.7765815907531506
    35   1      4.3306551602748105      14.019430914281733  2.7787177785952832e-08
    36   1      2.0661286710403326      14.972543087269305  3.2844860613049799e-08
    37   1       2.774411331153317       13.37214444773641       1.776581599711073
    38   1      4.6559556840709044      5.8222598788904749  1.3491444994367531e-08
    39   1      2.2242148817166121       6.639973304146606  1.4001048324256907e-08
    40   1      3.7985615804006487      7.4940916392876167      1.7765815869247013
    41   1      3.0973212981564946      5.1394367591581398      1.7765815847458588
    42   1      2.9402666705879645      9.1392728982349407  1.7373365461233613e-08
    43   1     0.53019674097231817      9.9723524464405582  1.9093120901888349e-08
    44   1      2.0834174247029815      10.813196449783234      1.7765815926416075
    45   1      1.3876893769259073      8.3042542229024452       1.776581587562333
    46   1      1.2468973883925172      12.462080707638856  2.5210276490397508e-08
    47   1     0.35593028825055384      14.019430913485266      1.7765815995424834
    48   1      7.6100635392691229      11.617642809810617      1.7765815941139187
    49   1     0.68123081210439074      5.8222598787525204       1.776581584546453
    50   1      7.7732864522923517      7.4940916392151955  1.5049008377880979e-08
    51   1     0.35603545652546853      18.482916539853093      5.3297447568082301
    52   1      7.4403376759266449       16.25132140713249  3.5816691095562813e-08
    53   1      3.4656128040103313      16.251321406986769      5.3297447516737684
    54   1      5.0015204352703169      16.251105196552647  3.2807042433922218e-08
    55   1      6.0411169869221313        17.5298336160708      5.3297447537271374
    56   1      5.2233693816411169      20.038829539125828      5.3297447590229758
    57   1      6.7500040116284383      19.131159948827399  4.1772154320345089e-08
    58   1      4.3307603282283758      18.482916540784732  4.1876150495085721e-08
    59   1      7.6092385467168828      20.885231210139036      5.3297447608504847
    60   1       6.898578885556554      23.372045162083982      5.3297447636261825
    61   1       0.526211190151332      22.516568932744583  4.8032191953481511e-08
    62   1      6.0608121509796469      21.695287539437384  4.7023913377448522e-08
    63   1      7.7760936268623384      24.871075137064508  4.9571187497326975e-08
    64   1      1.0267955630654688      16.251105198057797       5.329744749295787
    65   1      2.0663921147719337      17.529833616073319  3.8258651969309939e-08
    66   1      2.7752791397948262      19.131159948813284      5.3297447566826293
    67   1      2.0860872789151799      21.695287539465873      5.3297447617704865
    68   1      3.6345136747575628      20.885231209955421  4.6091691879609078e-08
    69   1      1.2486445096300489      20.038829539253012  4.4252255875231703e-08
    70   1      4.5009360621541186      22.516568932746111       5.329744762707648
    71   1      3.8013687547901043       24.87107513706535      5.3297447643140341
    72   1      5.3579538610622146      24.184763925609133  4.9185692988681846e-08
    73   1      2.9238540134904327      23.372045162139266  4.8916774017420485e-08
    74   1      1.3832289890550564      24.184763925608404      5.3297447639943405
    75   1      6.7491362033757207      13.372144447582595      3.5531631710611578
    76   1      6.0408535426094385      14.972543087708813      5.3297447482865028
    77   1      7.0720461706046818      5.1394367593296177      3.5531631564185546
    78   1      5.3624142490947078      8.3042542229994538      3.5531631591950146
    79   1      6.9149915425044686      9.1392728981693594      5.3297447322290719
    80   1      6.1989397533526205      6.6399733038201134      5.3297447286300201
    81   1      6.0581422967391365      10.813196449867235      3.5531631641628518
    82   1      3.6353386672652217      11.617642809667622      3.5531631657396949
    83   1      5.2216222603950637      12.462080707481913      5.3297447399911384
    84   1       4.504921612895199      9.9723524464476778      5.3297447337415829
    85   1       4.330655160310334      14.019430914335381      3.5531631709377534
    86   1      2.0661286710018154      14.972543087260767      3.5531631759966791
    87   1       2.774411331152951      13.372144447734852      5.3297447428003668
    88   1      4.6559556841273118      5.8222598786648945      3.5531631567363284
    89   1      2.2242148809112812      6.6399733034085315      3.5531631571357649
    90   1      3.7985615803854618      7.4940916392759451      5.3297447294095441
    91   1      3.0973212980715701      5.1394367591259069      5.3297447280810735
    92   1      2.9402666703889575      9.1392728981185662      3.5531631605421081
    93   1     0.53019674083028678      9.9723524464124349      3.5531631622301756
    94   1      2.0834174246927386      10.813196449775127      5.3297447357200101
    95   1      1.3876893768973857      8.3042542228853797       5.329744730816051
    96   1      1.2468973882926391      12.462080707591872       3.553163168360459
    97   1     0.35593028824791362      14.019430913481578      5.3297447427172866
    98   1       7.610063539267367      11.617642809808766      5.3297447374009392
    99   1     0.68123081209952385      5.8222598787711419      5.3297447288398656
   100   1      7.7732864524777332      7.4940916393566379      3.5531631581433896
