(written by ASE)

228 atoms
1 atom types

0.0      17.765815715748342  xlo xhi
0.0                      30  ylo yhi
0.0      7.1063262862993364  zlo zhi

Atoms # atomic

     1   1      1.4416655028160124      16.183644739495946      1.7765906012335739
     2   1  -0.0059421114745468471      13.397474002829032  8.1559245191926939e-06
     3   1      14.095589504833814      14.999999848433504      1.7765900775675989
     4   1      15.312446160620594      13.690500828225117  8.4921948247420725e-06
     5   1      12.785643648432755      13.727227285361948  8.5368175014316793e-06
     6   1       16.75454772407992      14.999999912681043      1.7765901322176865
     7   1      16.509349833815701      17.746166591769846      1.7765901901641397
     8   1   -0.005942349618315676      16.602525772876341  8.1427658610063535e-06
     9   1      15.312445839879691      16.309498933829179  8.5118006452462825e-06
    10   1      1.1199544962633559      18.559689274856673      1.7765902178309945
    11   1     0.93043167419556116      21.061043070841873      1.7765901422845145
    12   1      17.552479010914393      19.384949131140257  8.4921567450261461e-06
    13   1      8.8769659561191592      13.397474039584827      1.7765898560405378
    14   1      11.495622788047585      15.000000428649953      1.7765898659742281
    15   1      11.381741039648725      17.536287544149204      1.7765900065807845
    16   1      12.785643277854113      16.272772591990137  8.5632081538456301e-06
    17   1      10.324573616697839      16.183644565733051  8.8578395821875169e-06
    18   1      13.947810334173401      17.589557707193951      1.7765900996956296
    19   1      13.715319985803946      20.165150193721423      1.7765901231075745
    20   1      15.095643012442116      18.937516200329362   8.534569505702808e-06
    21   1       12.54196536078623      18.830432014369343  8.5667406456264728e-06
    22   1      16.255012310854333      20.414408416171916      1.7765901402437139
    23   1      16.062678590039972      23.046705488777832      1.7765901397235166
    24   1      17.383718508620234      22.005265103542154  8.5616282767004691e-06
    25   1      14.906293250665611      21.553811806157494  8.5587469113803503e-06
    26   1     0.77908418752660269      23.598675373339077      1.7765901430681088
    27   1      1.8901245294900866      25.031427372361069  8.5737536748068906e-06
    28   1      17.181027962421169      24.513249275547075  8.5720243824813891e-06
    29   1      3.9027356703817397      13.727227310435275      1.7765901302473641
    30   1       6.429538272063362      13.690500837875261      1.7765900687981953
    31   1      6.4295380145576608      16.309498943600765      1.7765900884183765
    32   1      7.8716398670469943      14.999999934044901  8.5426774241460097e-06
    33   1         5.2126816470163      14.999999869528615  8.4991153869170531e-06
    34   1      8.8769652929750151      16.602525812954369      1.7765898443277037
    35   1      8.6695712845863184      19.384949079164304      1.7765900804275065
    36   1      10.002862219552641      18.559689507565071  8.6143900837812039e-06
    37   1      7.6264420163286921      17.746166567148176   8.589585015057319e-06
    38   1      11.152854137756959      20.031935588295319      1.7765901178577446
    39   1      10.988386740921174      22.563116815007497      1.7765901400474657
    40   1      12.346747040556393      21.390738513967804  8.5650679539473162e-06
    41   1       9.813339575894874       21.06104300174966  8.5685984655434981e-06
    42   1       13.53715811292312      22.736912956616244      1.7765901387081169
    43   1      13.276949526138319      25.189231268650516      1.7765901447448151
    44   1      14.694897795200239      24.153316597921755  8.5708565934658122e-06
    45   1      12.159502901047686      23.943204119099878  8.5724466165697126e-06
    46   1      2.6127149328589918      15.000000225394947  8.1732545854394585e-06
    47   1      3.9027355409032953      16.272772615643998       1.776590156572601
    48   1       3.659057474488085      18.830432014648029      1.7765901484620208
    49   1      5.0649024634606077      17.589557693246746   8.522241990410714e-06
    50   1      2.4988331187949169      17.536287636951897   8.382966482653437e-06
    51   1      6.2127351279061731       18.93751622033723      1.7765901095621486
    52   1      6.0233854153003499      21.553811796808549      1.7765901303063623
    53   1      7.3721044004850835      20.414408457810648   8.563881891701383e-06
    54   1        4.83241213427248      20.165150202387572  8.5492270916741454e-06
    55   1      8.5008106095405722      22.005265139914435      1.7765901331844325
    56   1      8.2981201111485525      24.513249272753555      1.7765901432289279
    57   1      9.6619920324405317      23.598675394102997  8.5716131645152723e-06
    58   1      7.1797707512409588      23.046705485154934  8.5677403845152553e-06
    59   1      10.773032386654378       25.03142737358133      1.7765901456662712
    60   1      2.2699463242195743      20.031935560357169  8.5415688845038964e-06
    61   1      3.4638391828823796      21.390738513145749      1.7765901369992929
    62   1      3.2765950458215078      23.943204123075102      1.7765901434302045
    63   1      4.6542502475449901      22.736912969063354  8.5664613079484774e-06
    64   1      2.1054788704923686      22.563116818230966  8.5682963286858832e-06
    65   1      5.8119899276468958      24.153316612297054       1.776590141536154
    66   1      4.3940416676235339      25.189231268161095  8.5724492761339251e-06
    67   1      1.4416657265645623      13.816356223537401      1.7765905222119787
    68   1      10.324573334051845      13.816356065119079  8.7799673672904253e-06
    69   1       17.55248064091839      10.615050939251304  8.4278751902549411e-06
    70   1      16.509350632733575      12.253833181314425      1.7765901354179368
    71   1       17.18103111610964       5.486750837981786   8.451439004937245e-06
    72   1      17.383720945607074      7.9947349715043892  8.4565841204244097e-06
    73   1      14.906295585870179      8.4461879506496214  8.4622088878859649e-06
    74   1      16.255014180207514      9.5855913725288922      1.7765900536759822
    75   1       16.06268136459656      6.9532943819557085      1.7765900275161102
    76   1      15.095644392112998      11.062483512398197  8.4744545423691103e-06
    77   1      12.541966536697082      11.169567831001403  8.4938160906346094e-06
    78   1      13.947811052467811      12.410442031340315      1.7765900561734793
    79   1      13.715321829500716      9.8348494522230681      1.7765900400773835
    80   1      2.4988337770953786      12.463712964387904  8.3480594421405056e-06
    81   1      14.694900813201169      5.8466831803249404  8.4532121511334648e-06
    82   1      12.159505894031003       6.056795815044655  8.4514454329039499e-06
    83   1      13.537160750581537      7.2630868017349748      1.7765900278882087
    84   1      13.276952682284886      4.8107685023276927      1.7765900222254163
    85   1      12.346749162166992      8.6092613928582615  8.4614571235793432e-06
    86   1      9.8133416553452815      8.9389572594269779  8.4651035073319926e-06
    87   1      11.152855904330032      9.9680647824494226      1.7765900285686345
    88   1      10.988389258036863      7.4368834361970757      1.7765900250617019
    89   1      10.002863574770959       11.44031130116578  8.5300311205713448e-06
    90   1      7.6264427344885659      12.253833156671488  8.5350895065541633e-06
    91   1      8.6695726542770721      10.615050887982461      1.7765900155266769
    92   1      10.773035510403981      4.9685728121473645      1.7765900211832879
    93   1       9.661995026930807      6.4013249067813147  8.4519837010887468e-06
    94   1      7.1797734878640407      6.9532943793387467    8.45574284946696e-06
    95   1      8.5008131286727977      7.9947350082429489      1.7765900280678548
    96   1      8.2981232517721946      5.4867508364069311      1.7765900229813885
    97   1      7.3721063740130655      9.5855914139033391  8.4774930328487226e-06
    98   1      4.8324139649559079      9.8348494617290605  8.4664725192420398e-06
    99   1      6.2127365600332585      11.062483532985597      1.7765900495012963
   100   1      6.0233877059284797      8.4461879423762767      1.7765900338702734
   101   1      5.0649032076381397      12.410442017476406  8.4789483699106441e-06
   102   1      11.381741575088926      12.463712870973925      1.7765899708700301
   103   1      3.6590587073477936      11.169567830636307      1.7765900756923305
   104   1      4.3940448254216289      4.8107685027875364  8.4499674013722814e-06
   105   1       5.811992964907021      5.8466831959104946      1.7765900240901971
   106   1      4.6542529000754671      7.2630868147968402   8.455760111734532e-06
   107   1      2.1054814122446368       7.436883439121603  8.4532371558923348e-06
   108   1      3.4638413037377864      8.6092613923778529      1.7765900334873714
   109   1       3.276598033381509      6.0567958191172311      1.7765900223549635
   110   1      2.2699480027197172       9.968064754038064  8.4525646233245554e-06
   111   1      1.1199555849531402       11.44031107697637      1.7765901331888396
   112   1     0.93043384037248167      8.9389573264802529       1.776590038697089
   113   1       1.890127651943049       4.968572810367295  8.4490496719861033e-06
   114   1     0.77908715593594813      6.4013248855573694       1.776590023155153
   115   1      1.4416655028119749      16.183644739480627      5.3297537443865188
   116   1   -0.005942111474731236      13.397474002827501      3.5531712990767192
   117   1      14.095589504832637      14.999999848433864      5.3297532207180387
   118   1      15.312446160619757      13.690500828225767      3.5531716353464509
   119   1      12.785643648431765      13.727227285357799      3.5531716799739161
   120   1      16.754547724079785      14.999999912680508      5.3297532753654515
   121   1       16.50934983381795      17.746166591770404       5.329753333325054
   122   1  -0.0059423496184789091      16.602525772880561      3.5531712859142233
   123   1      15.312445839881207       16.30949893383012      3.5531716549512384
   124   1      1.1199544962808889      18.559689274830937      5.3297533610549248
   125   1     0.93043167438469199      21.061043070726114      5.3297532853963938
   126   1      17.552479010984747      19.384949131071917      3.5531716353303473
   127   1      8.8769659561214116      13.397474039605603      5.3297529991910686
   128   1      11.495622788040157       15.00000042865123      5.3297530091238219
   129   1      11.381741039647652      17.536287544141715      5.3297531497276971
   130   1      12.785643277856915      16.272772591983045       3.553171706354989
   131   1      10.324573616700189      16.183644565740074      3.5531720009747043
   132   1      13.947810334168592      17.589557707187623      5.3297532428473655
   133   1      13.715319985801818      20.165150193719423      5.3297532662300986
   134   1      15.095643012463023      18.937516200318587      3.5531716777361266
   135   1      12.541965360802902       18.83043201435208      3.5531717098915641
   136   1      16.255012310869301      20.414408416218464      5.3297532833155019
   137   1       16.06267858982201      23.046705489088378      5.3297532829137246
   138   1      17.383718508579143       22.00526510356384      3.5531717050434195
   139   1      14.906293250605248      21.553811806206348      3.5531717019138815
   140   1      0.7790841874342922      23.598675373390403      5.3297532862268238
   141   1      1.8901245294523166      25.031427372366416      3.5531717169111401
   142   1      17.181027962417442      24.513249275543355      3.5531717150105702
   143   1      3.9027356703823428      13.727227310440934      5.3297532733972899
   144   1      6.4295382720658116      13.690500837877643      5.3297532119506625
   145   1      6.4295380145597925      16.309498943594317      5.3297532315643883
   146   1      7.8716398670476559      14.999999934044359      3.5531716858049069
   147   1      5.2126816470188357      14.999999869525102      3.5531716422662192
   148   1      8.8769652929853553         16.602525812918      5.3297529874760539
   149   1      8.6695712845752109      19.384949079167441      5.3297532235912506
   150   1      10.002862219542218      18.559689507575573      3.5531717575481641
   151   1      7.6264420163253543      17.746166567148347      3.5531717327621024
   152   1      11.152854137755332      20.031935588290146      5.3297532609517209
   153   1      10.988386740913024       22.56311681499297      5.3297532832922272
   154   1      12.346747040499238        21.3907385140024      3.5531717082189274
   155   1      9.8133395757929289      21.061043001793223      3.5531717117482144
   156   1      13.537158112927216      22.736912956618653      5.3297532819129785
   157   1      13.276949526364959      25.189231268527159      5.3297532878337801
   158   1      14.694897795226332      24.153316597886135      3.5531717136957757
   159   1      12.159502901088338      23.943204119018834      3.5531717156173248
   160   1      2.6127149328555497      15.000000225400941       3.553171316402207
   161   1      3.9027355408961952      16.272772615654464      5.3297532997087353
   162   1       3.659057474448637      18.830432014688551      5.3297532916095909
   163   1      5.0649024634539668       17.58955769325522      3.5531716654059569
   164   1       2.498833118748514      17.536287636973434      3.5531715261111918
   165   1      6.2127351278831311      18.937516220356606      5.3297532527220204
   166   1      6.0233854153090949      21.553811796799803      5.3297532734737922
   167   1       7.372104400476708      20.414408457783043      3.5531717070225133
   168   1      4.8324121342822224      20.165150202394035      3.5531716923440242
   169   1      8.5008106095370959      22.005265139915135      5.3297532764820668
   170   1      8.2981201111673766       24.51324927275801      5.3297532861910009
   171   1       9.661992032518949      23.598675393978681      3.5531717147695749
   172   1      7.1797707513479923      23.046705484959425       3.553171710889266
   173   1      10.773032386724573      25.031427373571436      5.3297532886574999
   174   1      2.2699463242420843      20.031935560346604      3.5531716845968884
   175   1      3.4638391829373392      21.390738513102573      5.3297532801494949
   176   1      3.2765950458079427      23.943204123065257      5.3297532865897139
   177   1      4.6542502475371679      22.736912969061159      3.5531717096136064
   178   1      2.1054788704869236      22.563116818238665      3.5531717115086825
   179   1      5.8119899276555715      24.153316612289974      5.3297532845108764
   180   1      4.3940416674990459      25.189231268231751      3.5531717156231579
   181   1      1.4416657265698256       13.81635622352799       5.329753665360685
   182   1      10.324573334049655      13.816356065124955      3.5531719231109427
   183   1      17.552480640907021      10.615050939235683      3.5531715710216925
   184   1      16.509350632732666      12.253833181312537      5.3297532785659074
   185   1      17.181031116112777      5.4867508379776035      3.5531715946277176
   186   1      17.383720945585225      7.9947349714847524      3.5531715997226074
   187   1      14.906295585869934       8.446187950656503      3.5531716053553688
   188   1      16.255014180207922      9.5855913725321784      5.3297531968369825
   189   1      16.062681364600756      6.9532943819762574      5.3297531706890462
   190   1      15.095644392109515      11.062483512396804      3.5531716176019814
   191   1      12.541966536693376       11.16956783099436      3.5531716369682957
   192   1      13.947811052465655       12.41044203133683      5.3297531993229077
   193   1      13.715321829504649      9.8348494522204426      5.3297531832321532
   194   1      2.4988337771072198      12.463712964395699      3.5531714912055272
   195   1      14.694900813218684      5.8466831803508565      3.5531715963752335
   196   1      12.159505894035389      6.0567958150741408      3.5531715945948981
   197   1      13.537160750579378      7.2630868017349677       5.329753171046776
   198   1      13.276952682276232      4.8107685023217535      5.3297531653365713
   199   1      12.346749162168528      8.6092613928621855      3.5531716046071593
   200   1      9.8133416553642494      8.9389572594436419      3.5531716082656235
   201   1       11.15285590433704      9.9680647824538973      5.3297531717327651
   202   1      10.988389258033516      7.4368834361965463      5.3297531682215453
   203   1      10.002863574772576      11.440311301170832      3.5531716731568661
   204   1      7.6264427344883368      12.253833156672171      3.5531716782472866
   205   1      8.6695726542996461      10.615050888007501      5.3297531586737099
   206   1      10.773035510401622      4.9685728121470456      5.3297531642847833
   207   1      9.6619950269272561      6.4013249068029419      3.5531715951309937
   208   1      7.1797734878397463      6.9532943793163948      3.5531715988790267
   209   1      8.5008131286587236      7.9947350082362236      5.3297531711928317
   210   1      8.2981232517739603      5.4867508364079578      5.3297531661214359
   211   1      7.3721063740138968      9.5855914139002252       3.553171620669076
   212   1      4.8324139649581879      9.8348494617305935      3.5531716096272485
   213   1      6.2127365600344584      11.062483532983107      5.3297531926521895
   214   1      6.0233877059088607      8.4461879423591011      5.3297531770200326
   215   1      5.0649032076405058      12.410442017475086      3.5531716221017788
   216   1      11.381741575070921      12.463712870969456      5.3297531140185557
   217   1        3.65905870734476      11.169567830639442      5.3297532188472623
   218   1      4.3940448254427213      4.8107685027983855      3.5531715931407661
   219   1      5.8119929649169864      5.8466831959226546      5.3297531672673273
   220   1      4.6542529000740318      7.2630868147976004         3.5531715988912
   221   1      2.1054814122415229      7.4368834391238483      3.5531715963640988
   222   1      3.4638413037265936      8.6092613923735222      5.3297531766374266
   223   1      3.2765980333936353      6.0567958191465232      5.3297531655021437
   224   1      2.2699480027334049      9.9680647540469742      3.5531715957145535
   225   1      1.1199555849518121      11.440311076972723      5.3297532763226734
   226   1      0.9304338403661071      8.9389573264815407      5.3297531818250965
   227   1      1.8901276519498111      4.9685728103682392      3.5531715922548157
   228   1     0.77908715594866618      6.4013248855915217      5.3297531663045143
