(written by ASE)

180 atoms
1 atom types

0.0      14.654288669487332  xlo xhi
0.0                      30  ylo yhi
0.0      7.1063262862993364  zlo zhi

Atoms # atomic

     1   1      6.1787485353864255      18.255768721459553 -1.1637729737058329e-06
     2   1      5.7299240327924714       16.56227650490175      1.7765804000320569
     3   1      7.1487330646526779      21.862976742276867 -1.1500442780061432e-06
     4   1      6.6987080947024209      20.019134222585151      1.7765804151655766
     5   1       3.917038345889067      16.925078505568337 -1.1674904263569264e-06
     6   1      2.7757059483818338      19.191846023041283 -1.1578286688534231e-06
     7   1      4.4482170868551512      18.740563370667495      1.7765804117121602
     8   1      2.3542226841967464      17.242963197315962      1.7765804051567444
     9   1      4.9719644664870035      20.512165479919375 -1.1539575435135892e-06
    10   1      3.7221073680946981      22.734434164714592 -1.1481609861188286e-06
    11   1      5.4549944509438726      22.294643848566711      1.7765804224100532
    12   1      3.2254979598533873      20.986934724420127      1.7765804196582051
    13   1      5.8576228405684203      24.078378304250421 -1.1464913432489004e-06
    14   1      4.1906802677798085      24.504198158772425      1.7765804255148261
    15   1      13.057068343636637      16.562276451040873 -1.1715758955303107e-06
    16   1     0.71380146799376876      17.772117742528099 -1.1645391437186433e-06
    17   1      14.025852430368516      20.019134217220216 -1.1564029126484264e-06
    18   1      1.0793868672620608      19.564353509037744      1.7765804139454664
    19   1      13.505892875051929      18.255768742991982      1.7765804078290777
    20   1      1.5067986562197777      21.439831433604102 -1.1506323843238084e-06
    21   1     0.25849745940851332      23.705618954807694 -1.1467794829953311e-06
    22   1       1.974939918043656      23.237931904144258      1.7765804245552899
    23   1      14.475877401597467      21.862976745250595      1.7765804215363128
    24   1      2.5281751387054547      24.868347458820143 -1.1457844465761055e-06
    25   1       9.681366967650769       17.24296319247021 -1.1664678278957912e-06
    26   1      11.244182736392352      16.925078457089061      1.7765804041030111
    27   1      11.775361430188523       18.74056338381823 -1.1598661765760218e-06
    28   1       10.55264229488863      20.986934722730435 -1.1519079900824567e-06
    29   1      12.299108803644186      20.512165477231161      1.7765804176351212
    30   1      10.102850281524878      19.191846036698774      1.7765804137591801
    31   1      12.782138786658175      22.294643851979863 -1.1491566395464509e-06
    32   1      11.517824600081054      24.504198158685856  -1.146049035382612e-06
    33   1       13.18476717508927      24.078378304741619      1.7765804250923816
    34   1      11.049251702266451      22.734434167159215      1.7765804234273062
    35   1      8.0409458126411053      17.772117728535878      1.7765804070344673
    36   1      8.4065312076756253      19.564353512497053  -1.157645525505832e-06
    37   1      8.8339429906073921      21.439831430834211      1.7765804209493823
    38   1      9.3020842512477167      23.237931904288768 -1.1470126798614428e-06
    39   1      9.8553194703179603      24.868347457996901      1.7765804258002094
    40   1      7.5856417923780075      23.705618953951415      1.7765804247979282
    41   1     0.20796160407190356       16.17431792461803      1.7765804052422305
    42   1      7.5351059790598383      16.174317956153658 -1.1663766698023919e-06
    43   1      14.025852926907465      9.9808658367976495 -1.1999008689484936e-06
    44   1      13.057068620370803      13.437723675228648 -1.1855262530832432e-06
    45   1      13.505893252876112       11.74423137422967      1.7765803785200127
    46   1       12.69619212000285      15.000000113488568      1.7765803929909336
    47   1      11.517825279272145      5.4958018825840034 -1.2091026649284963e-06
    48   1       13.18476782998588       5.921621728674392      1.7765803628479191
    49   1      12.782139409623504      7.7053562024415561 -1.2063798739819947e-06
    50   1       10.55264284355167      9.0130653218906875 -1.2039543773097312e-06
    51   1      12.299109329767823      9.4878346002072949      1.7765803694463964
    52   1      11.049252342061395      7.2655658852163789      1.7765803643057894
    53   1      11.775361816015627      11.259436717712685 -1.1967305265815141e-06
    54   1      9.6813672290320554      12.757036838306972 -1.1906103324456758e-06
    55   1      11.244182899122857      13.074921539791989      1.7765803819948924
    56   1      10.102850674350139      10.808154011691842      1.7765803729300977
    57   1      10.916149165855753      15.000000019627462 -1.1786262388429688e-06
    58   1      9.1343375788142076      15.000000044818053      1.7765803929551969
    59   1      9.8553201658090064      5.1316525750153508      1.7765803622196772
    60   1      9.3020848917247392      6.7620681171932135  -1.208262448557752e-06
    61   1        7.14873365430668      8.1370232889097203 -1.2056060150545322e-06
    62   1      8.8339435525606351      8.5601685803566596      1.7765803664814888
    63   1      7.5856424350344049      6.2943810614868525       1.776580363103035
    64   1      8.4065316522840092      10.435646510893431 -1.1988107198923578e-06
    65   1      6.1787489292914408      11.744231359342908 -1.1930673913865725e-06
    66   1       8.040946115825129      12.227882353855245      1.7765803791299986
    67   1      6.6987085959830228      9.9808658486782154      1.7765803716759718
    68   1      7.5351061719160457      13.825682255974865 -1.1907844804128921e-06
    69   1      5.3690477906279455       14.99999997849871 -1.1786336286628895e-06
    70   1      5.7299242748732659      13.437723733086905       1.776580386082288
    71   1      5.8576234923059074      5.9216217306061276 -1.2087305766708322e-06
    72   1      3.7221080119687944      7.2655658945886454 -1.2072776432596979e-06
    73   1      5.4549950765418567      7.7053562090580749      1.7765803651922336
    74   1      4.1906809511866774      5.4958018891037401      1.7765803624630825
    75   1       4.971964999265218      9.4878346149567605 -1.2021377927278757e-06
    76   1      2.7757063365351544      10.808154007563193 -1.1986596310221324e-06
    77   1      4.4482174922751527      11.259436715686883      1.7765803748427853
    78   1       3.225498511654239      9.0130653355155488      1.7765803676132199
    79   1      3.9170386219290632       13.07492159464495 -1.1895973743342138e-06
    80   1       1.807193242343909      15.000000038075282 -1.1786094579232229e-06
    81   1      3.5890048345882666      15.000000014614187      1.7765803929734187
    82   1      2.3542228365855529      12.757036849127116       1.776580380985612
    83   1      2.5281758428722623      5.1316525831487851 -1.2093662430587259e-06
    84   1      0.2584981088729072      6.2943810652699481 -1.2084789672216876e-06
    85   1      1.9749405652457011      6.7620681247643804      1.7765803633077015
    86   1      1.5067992212192935      8.5601685894551309 -1.2051017091583571e-06
    87   1      1.0793873198398292      10.435646509831695      1.7765803727669507
    88   1      14.475877989758745      8.1370232888968612       1.776580365969336
    89   1      0.7138017818617296      12.227882368075397 -1.1924588811582357e-06
    90   1     0.20796186567182751      13.825682223085444       1.776580380795034
    91   1      6.1787485353864442      18.255768721459571      3.5531619793766374
    92   1      5.7299240327923826      16.562276504901789      5.3297435431817046
    93   1      7.1487330646524336      21.862976742276999       3.553161993105749
    94   1      6.6987080947022459      20.019134222585169      5.3297435583152257
    95   1      3.9170383458891984      16.925078505568326      3.5531619756591799
    96   1      2.7757059483818685      19.191846023041279      3.5531619853209975
    97   1      4.4482170868551894       18.74056337066747      5.3297435548618664
    98   1       2.354222684196797      17.242963197315937      5.3297435483062738
    99   1      4.9719644664869609      20.512165479919346      3.5531619891919175
   100   1      3.7221073680947434      22.734434164714415      3.5531619949879545
   101   1      5.4549944509436008      22.294643848566899      5.3297435655598075
   102   1      3.2254979598538633      20.986934724419896      5.3297435628079759
   103   1      5.8576228405664121      24.078378304251018      3.5531619966582682
   104   1      4.1906802677802375      24.504198158772503      5.3297435686663235
   105   1      13.057068343636523      16.562276451040926      3.5531619715737937
   106   1      0.7138014679936604      17.772117742528231      3.5531619786105693
   107   1      14.025852430368417      20.019134217220234      3.5531619867468005
   108   1       1.079386867262081      19.564353509037844      5.3297435570951386
   109   1       13.50589287505192      18.255768742991986      5.3297435509787974
   110   1      1.5067986562198485      21.439831433603963       3.553161992517603
   111   1     0.25849745940881702      23.705618954807825      3.5531619963737437
   112   1      1.9749399180455425      23.237931904143238      5.3297435677047833
   113   1      14.475877401596891      21.862976745250894      5.3297435646858142
   114   1      2.5281751387073368      24.868347458820018      3.5531619973658457
   115   1      9.6813669676508134      17.242963192470185      3.5531619766819262
   116   1      11.244182736392425      16.925078457089047      5.3297435472527432
   117   1      11.775361430188529      18.740563383818227      3.5531619832834251
   118   1      10.552642294888827      20.986934722730343      3.5531619912414727
   119   1      12.299108803644112      20.512165477231093      5.3297435607848858
   120   1      10.102850281524956      19.191846036698742      5.3297435569088538
   121   1      12.782138786658047      22.294643851979952      3.5531619939928101
   122   1      11.517824600081054      24.504198158685956      3.5531619970964612
   123   1       13.18476717508465      24.078378304743005      5.3297435682418941
   124   1      11.049251702266602      22.734434167158792       5.329743566577279
   125   1      8.0409458126410343      17.772117728535999      5.3297435501840997
   126   1      8.4065312076756484      19.564353512497092      3.5531619855041634
   127   1      8.8339429906075164      21.439831430833966       5.329743564098897
   128   1      9.3020842512485071       23.23793190428842      3.5531619961374941
   129   1      9.8553194703222342      24.868347457996581      5.3297435689498576
   130   1      7.5856417923784409      23.705618953951848      5.3297435679460854
   131   1     0.20796160407190456      16.174317924618038      5.3297435483917104
   132   1      7.5351059790598471      16.174317956153626      3.5531619767731732
   133   1      14.025852926907723      9.9808658367976726      3.5531619432489214
   134   1      13.057068620370895      13.437723675228675      3.5531619576233742
   135   1      13.505893252876033      11.744231374229722      5.3297435216696227
   136   1      12.696192120002861      15.000000113488511      5.3297435361405894
   137   1      11.517825279272126      5.4958018825843205      3.5531619340378331
   138   1      13.184767829975772      5.9216217286713597      5.3297435059981142
   139   1      12.782139409623971      7.7053562024418492      3.5531619367693534
   140   1      10.552642843550972       9.013065321890366      3.5531619391948142
   141   1      12.299109329767647      9.4878346002074618      5.3297435125957771
   142   1      11.049252342061676      7.2655658852172778      5.3297435074543733
   143   1      11.775361816015588      11.259436717712607       3.553161946418987
   144   1      9.6813672290320092      12.757036838306943      3.5531619525392815
   145   1      11.244182899122817      13.074921539791967      5.3297435251444982
   146   1      10.102850674350313      10.808154011691883      5.3297435160797546
   147   1      10.916149165855742      15.000000019627452      3.5531619645234325
   148   1      9.1343375788142041      15.000000044818032      5.3297435361048775
   149   1      9.8553201658184229      5.1316525750160835       5.329743505369466
   150   1      9.3020848917218846      6.7620681171919559       3.553161934888152
   151   1      7.1487336543075388      8.1370232889102034      3.5531619375444743
   152   1       8.833943552560962       8.560168580357189       5.329743509631701
   153   1      7.5856424350356786      6.2943810614860158       5.329743506258148
   154   1      8.4065316522839701      10.435646510893546      3.5531619443390818
   155   1      6.1787489292914728      11.744231359342926      3.5531619500822207
   156   1      8.0409461158251805      12.227882353855319      5.3297435222797285
   157   1      6.6987085959826853      9.9808658486782242      5.3297435148257417
   158   1      7.5351061719160644      13.825682255974835      3.5531619523650071
   159   1      5.3690477906279552      14.999999978498643      3.5531619645160371
   160   1      5.7299242748734383      13.437723733086953      5.3297435292319788
   161   1      5.8576234923131301      5.9216217306082788      3.5531619344194589
   162   1      3.7221080119686216      7.2655658945880015      3.5531619358704938
   163   1      5.4549950765412412      7.7053562090576619       5.329743508341604
   164   1      4.1906809511870886      5.4958018891033964      5.3297435056061815
   165   1      4.9719649992653627      9.4878346149566557      3.5531619410114925
   166   1      2.7757063365350314      10.808154007563163      3.5531619444900588
   167   1      4.4482174922752593      11.259436715687043      5.3297435179923403
   168   1      3.2254985116552337      9.0130653355160302      5.3297435107625226
   169   1      3.9170386219289726       13.07492159464495      3.5531619535523524
   170   1      1.8071932423438983      15.000000038075264      3.5531619645402159
   171   1      3.5890048345882719      15.000000014614169      5.3297435361230674
   172   1      2.3542228365855005      12.757036849127079      5.3297435241353783
   173   1      2.5281758428655006      5.1316525831482585      3.5531619337841005
   174   1     0.25849810887181662      6.2943810652704686      3.5531619346783847
   175   1      1.9749405652497398      6.7620681247663246      5.3297435064579588
   176   1       1.506799221219024      8.5601685894547153      3.5531619380487038
   177   1      1.0793873198398141      10.435646509831541      5.3297435159166673
   178   1      14.475877989757512      8.1370232888961986      5.3297435091196093
   179   1     0.71380178186179877      12.227882368075539      3.5531619506908161
   180   1     0.20796186567181027      13.825682223085455      5.3297435239448987
