(written by ASE)

72 atoms
1 atom types

0.0      4.0496852345588978  xlo xhi
0.0      7.0142609609931217  ylo yhi
0.0      30.857594268453195  zlo zhi

Atoms # atomic

     1   1      2.0248181951508681      3.5070078418242199    1.63509303874319e-08
     2   1      4.0496608183953029      7.0141383712569372                       0
     3   1      4.0496616449347593      2.3379663717518535     0.74028788840307658
     4   1      2.0248190336242922       5.845096841814386     0.74028779590643878
     5   1      4.0496628400291579       4.676055849822121      1.4292703626935723
     6   1      2.0248202182013149      1.1689253469354419       1.429270342722188
     7   1       2.024823340564033      3.5070175160752761      2.3578373672927531
     8   1      4.0496659579586458      7.0141480247154444      2.3578373530265075
     9   1      4.0496688491219448      2.3379784482066568      3.1884765827512371
    10   1      2.0248262374853088      5.8451089183313707      3.1884765057007236
    11   1      2.0248287013651747      1.1689383107765265      3.9635560008506268
    12   1      4.0496713283060055      4.6760688122717315      3.9635560085847907
    13   1      2.0248324496286942      3.5070306636590263      4.8214249210831426
    14   1      4.0496750594447537      7.0141611482681494      4.8214249158701818
    15   1      4.0496789937485165       2.337992308972471      5.6526137742262677
    16   1      2.0248363709957684      5.8451227897610547      5.6526137383839021
    17   1       4.049682750939902      4.6760837367479402      6.4581647495890318
    18   1      2.0248401369411151      1.1689532407005334      6.4581647466808914
    19   1      2.0248445334565268      3.5070445429684352      7.3023595879698897
    20   1   1.920786302275497e-06      7.0141750255804762      7.3023595964762684
    21   1      2.0248486764364495      5.8451348714377422      8.1315096762189203
    22   1  6.0527196217233471e-06      2.3380043916815954      8.1315096838419674
    23   1   1.002318187667555e-05      4.6760935974443054      8.9271347176520237
    24   1      2.0248526370065538      1.1689631184929594      8.9271347155537448
    25   1  1.5182484304741938e-05      7.0141815982999995      9.7931715726956039
    26   1      2.0248578022316699      3.5070511250567877      9.7931715651998754
    27   1      2.0248617686789463        5.84513805809127      10.631890862649403
    28   1  1.9149832066800967e-05      2.3380075758159635       10.63189084163173
    29   1  2.2430798820388757e-05      4.6760923309733302      11.357023813805444
    30   1      2.0248650427800459      1.1689618607562255      11.357023807152091
    31   1  2.9778986095088568e-05      7.0141707933008499      12.300481668033408
    32   1      2.0248724035119299      3.5070403347240475      12.300481662709794
    33   1       2.024878499845693      5.8451196910561167      13.211801305863803
    34   1  3.5890318147735712e-05      2.3379892112363279      13.211801237164481
    35   1  3.7996813339203719e-05      4.6760735868007561      13.706072593177998
    36   1      2.0248806204524561      1.1689431220471036      13.706072573362725
    37   1  6.5494728005870926e-05      7.0141277637202677      14.841451023024867
    38   1      2.0249081061970986      3.5069972749444842      14.841451034984571
    39   1      2.0249357201539686      1.1688774965527471      15.975585133711981
    40   1  9.3101327791341828e-05      4.6760079771561029       15.97558515556689
    41   1  9.5355570805346672e-05      2.3379195446085155      16.472736878137379
    42   1      2.0249379724488179      5.8450500307940958      16.472736876224214
    43   1  0.00010196584553225579      7.0140923533095618      17.382596282689402
    44   1      2.0249445815091622      3.5069618754175464      17.382596286344388
    45   1  0.00011008729040886756      4.6760063830064462      18.324328575694924
    46   1      2.0249527084578482       1.168875903738464       18.32432855684484
    47   1      2.0249564405886176      5.8450503604982558      19.052900431723671
    48   1  0.00011382795557450592      2.3379198739796827      19.052900432354747
    49   1  0.00011828493741332572      7.0140949776266979      19.891024932893671
    50   1       2.024960904792577      3.5069645005079599      19.891024931388053
    51   1      2.0249665992901331      1.1688786246820315       20.75192822974741
    52   1  0.00012398491949217036      4.6760091025829533      20.751928239031788
    53   1   0.0001284994368186164      2.3379235736215054       21.55507504082707
    54   1      2.0249711202795173      5.8450540559896762      21.555075040716787
    55   1  0.00013280996654654119      7.0141002724888279      22.386717561096475
    56   1      2.0249754242572897      3.5069697918685687      22.386717561566957
    57   1  0.00013705855848777205      4.6760165286748681      23.211016275934686
    58   1      2.0249796762068515      1.1688860477422369      23.211016270159696
    59   1      2.0249837975233311      5.8450631189126447      24.036776395713517
    60   1  0.00014117815643979433      2.3379326369735711      24.036776395842878
    61   1      2.0249875520756153      3.5069784176290644      24.889810474537491
    62   1  0.00014493583588877297      7.0141088966989429      24.889810474295206
    63   1      2.0249901409245701      1.1688929693443424      25.670568723694306
    64   1  0.00014752429825544086       4.676023449771721      25.670568727984236
    65   1      2.0249930902717712      5.8450685268395208      26.499928847875719
    66   1    0.000150472098880951      2.3379380432998653      26.499928846632173
    67   1  0.00015362425002140635       7.014113645506896      27.426605415433414
    68   1      2.0249962421233296      3.5069831659970543       27.42660541297008
    69   1  0.00015485391122692396      4.6760269061606081      28.117869900231764
    70   1      2.0249974705555776      1.1688964260361074      28.117869898109749
    71   1      2.0249983234245335       5.845070161549283      28.857594268453191
    72   1  0.00015570693297288406      2.3379396810094253      28.857594265986148
